<VTKFile type="UnstructuredGrid" version="0.1" byte_order="LittleEndian">
<UnstructuredGrid>
<Piece NumberOfPoints="500" NumberOfCells="500">
<PointData Vectors="IR_g_1">
<DataArray type="Float64" Name="IR_g_1" NumberOfComponents="3" format="ascii">
0.000191347 0.000170809 0
0.000279487 6.93287e-05 0
0.00185949 0.00259636 0
0.000341709 0.00252474 0
-0.000334723 -0.00150045 0
-0.000384629 -0.00112697 0
0.0019177 -0.00131783 0
0.00219441 -0.00354204 0
-0.000338209 -0.000152621 0
-0.000216923 -0.000168394 0
-0.000416892 8.04238e-05 0
-0.000544094 0.00036179 0
-0.000127505 -0.00184617 0
-0.000272825 -0.00154394 0
0.00033906 0.00185318 0
0.000415425 0.00119131 0
-0.000533142 0.000540508 0
-0.00051778 0.000546885 0
0.00262206 0.000348006 0
0.00270695 0.00176308 0
8.06947e-05 -0.000120341 0
0.00020593 -6.98456e-05 0
0.000786125 -0.000267372 0
0.00117701 0.000157545 0
-0.000387276 -0.000732274 0
-0.000280912 0.000175973 0
0.000395301 0.000293842 0
0.00028082 -0.000651026 0
0.000266435 -4.56169e-05 0
0.000271954 -2.65826e-05 0
0.000368419 -4.52944e-05 0
0.000455309 -0.000171684 0
-0.000256416 -0.000201791 0
0.00285829 0.00341653 0
0.00102693 0.00326955 0
-0.000560413 0.0059283 0
-8.0812e-05 0.00629535 0
-7.86582e-05 -7.18079e-05 0
-1.5795e-05 -8.1591e-05 0
-0.0134062 0.00286354 0
-0.0124345 -0.00031359 0
0.00324571 -0.0033526 0
0.00475773 -0.00223172 0
-0.0101354 0.00571391 0
-0.0120739 0.00497244 0
0.00581668 -0.000600663 0
0.00587285 0.00127701 0
-0.0003889 0.00267011 0
-0.00133538 0.00189921 0
-0.005827 0.00386314 0
-0.00639438 0.00461162 0
-0.000557791 -0.00162357 0
6.37922e-05 -0.00156954 0
-0.000554463 -0.00399286 0
-0.001818 -0.00221301 0
-0.00116093 0.0014289 0
-0.00190842 0.000703661 0
0.00471726 0.00277388 0
-0.000463617 -0.00329769 0
-0.00142472 -0.00601946 0
0.00122126 0.00291469 0
0.000529855 0.000118642 0
-0.00212306 0.000469513 0
-0.00262722 -0.000886042 0
-0.0018875 0.0011107 0
-0.00213245 0.000375609 0
0.000440774 0.00539411 0
0.000977698 0.00354954 0
-0.000977828 0.00414907 0
-0.00146361 -0.00624693 0
-0.00149519 -0.00268219 0
0.000200477 -0.00220737 0
0.00167029 -0.00114291 0
-0.00110619 -0.00300256 0
-0.000860638 -0.00190234 0
-0.00196191 -0.00663298 0
-0.00176683 -0.00424202 0
-0.00242643 -0.00110679 0
-0.00202288 -0.00184581 0
-0.00233342 -0.00200772 0
-0.00129119 -0.00251604 0
-0.00289565 -0.00161196 0
-0.00218662 -0.00263007 0
-0.000646856 -0.00156269 0
-0.000463367 -0.000864868 0
-8.85774e-05 0.0001969 0
0.000336312 0.001223 0
0.000517061 0.0015289 0
0.000593461 0.00145126 0
-0.000241234 -0.0012686 0
-0.000388016 -0.0013591 0
0.000385109 0.00069484 0
0.000111249 -0.000171228 0
-0.000546721 -0.00136414 0
-0.000412329 -0.000757339 0
-0.000976265 -0.00266525 0
0.000782575 -0.00179336 0
-0.000100646 0.000228409 0
0.000198893 0.000991561 0
0.000288628 0.00168959 0
0.000380651 0.00136913 0
9.79875e-05 -0.00143816 0
-0.000108623 -0.00189219 0
8.70236e-05 0.00107444 0
0.00028384 0.00141408 0
0.000311797 -0.000210907 0
0.000276666 -0.000889279 0
0.000359773 0.000690218 0
0.000230604 -0.00015802 0
-0.00032495 0.000757932 0
-0.000187307 0.00152586 0
-0.000175768 0.00168431 0
-0.00153614 0.000545209 0
-3.16528e-06 0.00202647 0
0.000187045 0.00214811 0
0.000418827 0.0017295 0
-0.000924055 0.000908299 0
0.00124708 -0.000709723 0
0.00213983 0.000496282 0
0.00231827 0.000961786 0
0.00213026 0.00169985 0
0.0017972 -0.000417437 0
0.00250498 0.000981188 0
0.000223901 -0.00049063 0
0.00019958 -0.000788264 0
-0.00194283 -0.000210495 0
-0.00229298 -0.00123901 0
-0.00148459 0.000440434 0
-0.00235646 -0.000673758 0
0.000137049 -0.00097294 0
4.61991e-05 -0.00100345 0
0.00243473 0.00041487 0
0.002788 0.00148782 0
1.68864e-05 0.000432396 0
0.000104409 0.000220694 0
0.00025984 -0.000783737 0
0.000155834 -0.000687853 0
-0.00078213 -0.000988828 0
7.92874e-05 -0.000696121 0
-0.000487465 0.000193167 0
-0.000750375 -4.95847e-05 0
0.0003033 8.24612e-05 0
0.000239643 0.00011017 0
-0.000264374 -1.19933e-05 0
-0.000258642 -4.52123e-05 0
0.000270476 4.05932e-06 0
0.000361454 -0.000251061 0
0.000207149 -0.000203796 0
0.000436947 -6.07043e-05 0
0.000432515 -0.000952584 0
0.000280553 -0.000846871 0
0.00010691 -0.000681244 0
-7.67875e-05 -0.000461938 0
-0.000250902 0.000154873 0
-0.000315623 0.000157653 0
1.32114e-05 -8.82956e-05 0
9.54862e-05 -7.47083e-05 0
0.000157175 6.34179e-05 0
9.5084e-05 7.52162e-05 0
-0.000714164 0.000579727 0
-0.000700189 0.000563615 0
0.000694611 -0.000933356 0
0.000642325 -0.000989144 0
-0.000500582 0.000552993 0
-0.000481094 0.000558334 0
0.00026264 -5.44873e-06 0
0.000239043 1.70052e-05 0
-0.000109828 0.000136598 0
-0.000181584 0.000147719 0
0.000606054 0.000526614 0
7.58158e-05 0.000704839 0
-0.000219881 -7.10472e-05 0
-0.000155083 -8.72614e-05 0
-0.000135553 -5.79264e-05 0
-0.00074656 0.000644375 0
-0.000738503 0.000620078 0
-0.000657946 0.000530317 0
-0.000644592 0.00052382 0
0.00053661 -0.000307334 0
-0.000234595 -0.000211858 0
-0.000100743 -0.000300202 0
-0.0094119 -0.00291016 0
0.00164529 -0.00403168 0
-0.00861693 0.00574051 0
-0.00364291 -0.00460388 0
-0.00164989 -0.00461507 0
-0.00511689 0.00280189 0
4.42947e-05 -0.00442006 0
-0.00693623 0.00513104 0
-0.00112613 -0.00150672 0
0.00171456 -0.000415976 0
0.00198796 0.000203951 0
0.000689279 -0.0013408 0
0.000573532 -0.00538788 0
0.00148901 0.00117199 0
-0.000279541 0.00187703 0
-0.00307505 -0.000336523 0
-0.00213705 -0.000272772 0
-0.00194817 -0.00081426 0
-0.00130596 0.00110221 0
0.00228965 0.00792137 0
0.00176661 0.00252709 0
-0.00119775 -0.00223313 0
-9.10244e-05 -0.00214644 0
0.00180071 0.00141753 0
0.00130638 0.00183346 0
0.000705998 -0.00361142 0
-0.00036099 -0.00759495 0
0.00224627 -0.00520079 0
0.00201018 -0.00609524 0
-0.00237023 -0.000194369 0
0.00201708 -0.000579414 0
0.00249783 0.000583702 0
-0.000786041 0.000792089 0
0.000647193 0.00640605 0
-0.00110854 -0.00830409 0
0.00158426 0.00227266 0
0.000354764 0.00229036 0
-0.00101206 0.0016384 0
0.00142224 0.00425482 0
-0.00160081 -0.00123142 0
0.00144985 -0.00614321 0
0.00112392 0.00392818 0
0.00187583 0.00948248 0
0.000477037 0.00229351 0
-0.000270735 7.72182e-05 0
-0.000949114 -0.00294175 0
-0.000471179 -0.00185457 0
0.000140696 -0.000210567 0
-0.00133061 0.0015408 0
0.000663397 0.00136976 0
-0.00256242 -2.5191e-05 0
0.000916548 0.00233597 0
0.00043679 0.00157852 0
0.000824011 0.00239116 0
-9.00314e-05 0.000245958 0
-0.000795223 -0.0019535 0
-0.000557143 -0.00109365 0
-0.00072608 -0.00204599 0
-0.000672975 -0.00268655 0
0.000245469 0.00102872 0
-0.000388468 -0.00137698 0
0.000505074 0.00128871 0
0.00110221 -0.00174295 0
0.000498693 0.000947484 0
8.02442e-05 -0.000230382 0
7.71553e-05 -0.000336826 0
-0.000197617 -0.00104005 0
0.00248645 -0.000140745 0
0.00296229 0.00152161 0
0.00234622 0.00261542 0
-0.000110608 0.00015417 0
-0.000400587 -0.000993512 0
0.000645056 0.00181257 0
-0.000575938 -0.00164725 0
-0.000135537 0.000391186 0
0.00071108 0.00171826 0
0.000437128 0.000808899 0
-0.000287013 -0.00110745 0
0.00222645 -0.000266748 0
-0.000215289 -0.000988897 0
0.00010144 -0.0001666 0
-0.000270271 -0.000292268 0
0.000431565 0.00139769 0
0.000863023 0.00272464 0
-0.00040634 -0.0013745 0
-0.000467839 -0.0012136 0
-0.000286516 -0.00191022 0
-0.00046865 -0.00144747 0
-0.00233665 -0.00220184 0
-0.00115792 -0.00239254 0
0.000433888 0.00112352 0
0.000316001 0.000480849 0
0.000178675 -0.00146103 0
0.00162616 0.00195846 0
-3.93415e-05 0.000508528 0
-0.000353512 -0.000607907 0
-0.00232523 -0.000753564 0
-1.46171e-05 -0.000754297 0
0.00039251 0.00136842 0
-0.000251706 0.000366149 0
-0.000229568 0.000832436 0
-0.000935661 0.00180845 0
0.00282648 0.00132816 0
0.000388332 0.00130498 0
-0.002379 0.000218083 0
0.00172491 -0.000103589 0
0.000211885 0.0011349 0
-0.00031118 -0.000425611 0
-0.000388824 -0.00148954 0
0.000212291 1.29337e-05 0
-0.00239316 -0.00253609 0
0.000207364 -0.000134943 0
3.06882e-05 -0.000938618 0
-0.00168197 -0.00195113 0
-0.000297606 -0.00165601 0
0.00036274 0.000782199 0
0.000411996 -0.00170444 0
0.000111964 0.00156031 0
-0.00293109 -0.00143933 0
0.0022781 0.00149947 0
0.00237667 0.00239285 0
-0.000191999 0.000119197 0
-0.000219457 0.000395684 0
-0.0022791 -0.00174647 0
-0.000179575 -0.0014323 0
-0.00256612 -0.000290725 0
-0.00301253 -0.00145703 0
-0.00202964 0.000326671 0
-0.00267656 -0.00117481 0
0.00055764 -0.00113718 0
-9.76989e-05 0.00100982 0
3.45156e-05 -0.00180821 0
0.000224188 -0.000259093 0
0.00024201 -0.000471646 0
-0.000612558 0.00174709 0
0.000587603 0.00140174 0
-0.000760199 0.000742141 0
0.000281443 0.000447282 0
-0.000388397 -0.000119166 0
0.00106348 0.00254306 0
0.00127808 0.00223854 0
-0.00143295 -0.00209331 0
0.000154482 0.000219931 0
-0.000158285 0.00118771 0
-4.92103e-05 0.00135593 0
-0.000299162 0.000527269 0
-0.000281699 0.000652081 0
-0.000787934 -0.00178768 0
0.00120559 0.00047086 0
-0.000367972 -0.000935575 0
0.00229965 0.00198207 0
-0.00015346 -0.000554688 0
-0.000223537 -0.000123862 0
-0.000212445 0.000626213 0
0.00019639 0.000973179 0
0.00121139 0.00186191 0
7.75176e-05 0.00128782 0
-9.95837e-05 -0.00169316 0
-0.00227871 -0.00204216 0
0.000345651 -0.000810929 0
-0.00244313 -0.00157551 0
-0.00185853 -0.00182911 0
-0.000682043 -0.000359995 0
-0.000420461 -0.00038204 0
7.56544e-05 0.000520381 0
-5.70878e-05 -0.000860927 0
0.001256 -0.000770618 0
0.00191757 0.00162854 0
-0.000156557 0.000744422 0
1.42099e-06 0.000523624 0
-0.000171353 0.000774013 0
-0.00166432 -4.71703e-05 0
0.000247507 0.000245067 0
3.17151e-05 0.000206295 0
-0.000142914 0.00139088 0
0.000644988 0.00187133 0
-0.00115099 0.00098436 0
-5.68623e-05 -0.000413033 0
-0.000134828 -0.000163051 0
-0.000660061 -0.00181532 0
0.000926102 0.000616033 0
0.00022768 -0.00062952 0
0.0001831 -0.000710826 0
-0.000101978 0.000811513 0
-1.49561e-05 0.000725445 0
0.00266541 0.00123492 0
0.00213125 0.00205114 0
0.000176383 -1.87896e-05 0
-0.000809944 -0.000245482 0
-0.00191015 -0.00068717 0
-9.90029e-05 -0.000321638 0
0.00115597 -0.000902439 0
-0.000626782 0.000617916 0
-0.00023438 0.000708132 0
-0.00016298 0.000688483 0
0.000114194 -0.000701869 0
3.03131e-05 -0.000599612 0
-6.82938e-05 -0.000155877 0
0.000147562 0.00026959 0
0.00241717 0.000279029 0
-0.000237126 0.000129596 0
-0.000284096 0.00034705 0
0.000458146 0.000589225 0
0.000554602 -0.00099835 0
0.000144292 0.000120536 0
4.38528e-05 -0.000532417 0
-7.58514e-05 0.000593718 0
-0.00154174 -0.00101145 0
0.000608068 -0.000448367 0
0.000428838 -0.000651433 0
0.0004043 -0.000766004 0
-0.00016206 -0.000103993 0
-4.96671e-05 0.000394696 0
2.54737e-05 0.00033307 0
-6.54849e-05 -0.00033168 0
0.000211637 -2.93519e-05 0
0.00023462 -2.77411e-06 0
0.000547102 0.000180694 0
0.000433767 0.000238464 0
-5.56547e-05 0.000427957 0
-0.000403879 0.000563509 0
-0.000370115 0.000559053 0
-4.63096e-05 7.8945e-05 0
-0.000112202 7.13141e-05 0
0.000414958 -0.000475368 0
-0.000547085 0.000534283 0
-0.000658127 0.000825975 0
-0.000636547 0.000967537 0
-0.000182284 -4.06325e-05 0
-0.000565747 0.00103068 0
-0.000454026 0.0010111 0
-0.000406852 -0.000107535 0
-0.000631741 0.000519412 0
-0.000619364 0.000516959 0
-0.000323028 4.8282e-05 0
-0.000404241 -3.73541e-05 0
0.000553405 7.58917e-05 0
0.000212257 -7.45156e-05 0
0.000246231 -6.18151e-05 0
-0.000727243 0.000598526 0
0.000154122 6.27032e-05 0
9.64689e-05 8.44062e-05 0
-0.000609977 0.000784189 0
-0.000684021 0.000759809 0
-0.000373769 0.000155698 0
0.00252649 -0.000790776 0
0.00208756 -0.000301536 0
-0.000493904 2.58605e-05 0
-0.000461907 -1.94081e-05 0
0.000322326 3.95852e-05 0
0.00028963 -1.35951e-05 0
0.000664824 -0.000589348 0
0.000701621 -0.00072318 0
2.49571e-05 8.04018e-05 0
-0.000233923 2.51536e-05 0
-0.000215123 -2.08495e-05 0
0.000713157 -0.000841171 0
0.000106157 0.000258661 0
-0.000607377 0.00051632 0
-7.59322e-05 9.30363e-05 0
-0.00016888 6.18101e-05 0
0.000163907 -5.42207e-05 0
0.000166227 -8.31648e-05 0
0.000202321 3.99843e-05 0
-0.000331439 0.000549964 0
-0.000287346 0.000535166 0
-7.38119e-05 -9.29165e-05 0
-0.000237393 0.000513489 0
-0.000181231 0.000483697 0
-0.000231141 2.88417e-07 0
0.000204603 4.56019e-05 0
-0.000595644 0.000517344 0
0.000110638 -8.73509e-05 0
-0.000458829 0.00056233 0
-0.000685926 0.000550089 0
-0.000206811 4.13205e-05 0
-0.000228519 2.148e-05 0
-0.000724412 0.00073049 0
-0.000743583 0.000700295 0
-0.000583987 0.000519861 0
-0.000572189 0.000523677 0
0.00132944 0.000189552 0
-0.000507167 9.40568e-05 0
-0.000508406 6.34543e-05 0
4.86999e-05 -8.68372e-05 0
0.000231733 2.29541e-05 0
-0.000671766 0.000539031 0
-0.000749318 0.000671261 0
-3.79468e-05 0.000121977 0
-0.000269225 0.000778746 0
-0.000463348 0.000136284 0
-0.000491685 0.000118194 0
3.16395e-05 0.000104382 0
0.00145062 -0.000987225 0
0.00198397 -0.0010996 0
-0.0003358 -0.000136881 0
7.40562e-05 -0.000404342 0
0.000301408 -0.000526801 0
0.00059666 -0.000669021 0
-0.000167128 5.83828e-05 0
0.0020276 0.000843593 0
0.00235547 0.00163336 0
3.34819e-05 0.000113971 0
0.000584671 0.0020065 0
0.0024341 -0.00106889 0
-0.000482275 0.000795645 0
-0.000170274 0.000135135 0
0.00107076 -0.001562 0
-0.000433269 0.000564311 0
-0.000559988 0.000528571 0
-0.00761186 0.00550073 0
-0.00620165 -0.00419101 0
0.0012607 -0.000947054 0
-0.00042355 0.000148679 0
-0.000410196 -7.32557e-05 0
-0.00419902 0.0013869 0
-0.000118657 0.000444517 0
-0.000313081 0.000912222 0
0.000976938 -0.00082793 0
</DataArray>
</PointData>
<Points>
<DataArray type="Float64" Name="Nodes" NumberOfComponents="3" format="ascii">
0.79399039998046705 -0.60793029595411507 0 
0.78628843351483357 -0.61785961133641776 0 
-0.56726895068709737 0.82353259655362732 0 
-0.55687561802889873 0.8305958981628383 0 
-0.44838321464588482 -0.8938414248757004 0 
-0.45957985915595778 -0.88813644957190563 0 
-0.99928947264556478 0.037690182538015871 0 
-0.99873695661487616 0.05024431800367999 0 
0.63742398804540945 0.77051324418486522 0 
0.64705595985611575 0.76244251246548467 0 
0.64705596326668291 -0.76244250957106607 0 
0.63742399142807882 -0.7705132413864777 0 
-0.13779029020827599 -0.9904614257629214 0 
-0.15022558859348131 -0.98865174481803353 0 
-0.23649899621517501 -0.9716317331114781 0 
-0.2486898863114442 -0.96858316134774969 0 
0.89940525226734302 -0.43711576520861972 0 
0.8938414248906561 -0.448383214616071 0 
-0.58778525387953762 0.80901699322187759 0 
-0.57757270500629865 0.81633924959645732 0 
0.66601186569298032 0.74594114697887237 0 
0.67533280638211157 0.73751311895047766 0 
0.39137366553956171 0.92023184791775559 0 
0.40290643437936119 0.91524117320830223 0 
-0.3328195433971684 -0.94299053629021135 0 
-0.34464292200244673 -0.93873385808418319 0 
-0.26084150537988521 -0.96538163907915475 0 
-0.27295193455717831 -0.96202767185850424 0 
0.95105651599935559 0.30901699528532001 0 
0.95486454447740798 0.297041582442513 0 
0.77846230297074537 -0.62769135954980559 0 
0.77051324423201828 -0.63742398798841116 0 
0.65658575747428294 -0.7542513792376665 0 
-0.91010597131810578 0.41437557960276478 0 
-0.90482705312775724 0.42577929015880839 0 
-0.99968418928156422 -0.025130095512386409 0 
-0.99992104420338168 -0.012566039917921859 0 
0.9202318468662779 0.39137366801188761 0 
0.92507720636490731 0.37977909666554682 0 
-0.96538163908421326 0.26084150536116341 0 
-0.96202767186366378 0.27295193453899341 0 
-0.93432894292032453 0.35641187749763492 0 
-0.92977648638558408 0.36812455142855921 0 
-0.97163173311916773 0.23649899618358319 0 
-0.96858316135414846 0.24868988628652289 0 
-0.92507720736718335 0.379779094224173 0 
-0.92023184793724755 0.39137366549373082 0 
-0.89940525226734302 0.43711576520861972 0 
-0.8938414248906561 0.448383214616071 0 
-0.98456433463803417 0.1750230583630768 0 
-0.98228725085559643 0.18738131392045099 0 
-0.85099448281515477 0.52517462830773465 0 
-0.84432792656359901 0.53582679330620797 0 
-0.99361131056411789 0.1128563844851326 0 
-0.99211470137020719 0.1253332331231608 0 
-0.77051324423201828 0.63742398798841116 0 
-0.76244251249926587 0.64705595981631059 0 
-0.9152411732333583 0.40290643432244388 0 
-0.97452687263944138 -0.22427076158873249 0 
-0.97726812343618963 -0.21200711053053961 0 
-0.968583160944962 -0.24868988788019861 0 
-0.97163173274994707 -0.23649899770048799 0 
-0.64705596326668291 0.76244250957106607 0 
-0.63742399142807882 0.7705132413864777 0 
-0.88813644959427296 0.45957985911273302 0 
-0.88229122724646125 0.4707039306442356 0 
-1 0 0 
-0.99992104420447581 0.01256603983085847 0 
-0.99928947263668588 -0.037690182773426187 0 
-0.99715890024508624 -0.075326805733484326 0 
-0.99802672841747164 -0.062790519700972949 0 
-0.60793029933019138 0.79399039739552513 0 
-0.59790498467304098 0.80156698366582602 0 
-0.94709830467022604 -0.32094361076485628 0 
-0.95105651599935559 -0.30901699528532001 0 
-0.97985505226745806 -0.19970998108741869 0 
-0.98228725062602196 -0.18738131512392259 0 
-0.74594114700727432 0.66601186566116966 0 
-0.7375131189755999 0.67533280635467619 0 
-0.62769136295574157 0.77846230022446394 0 
-0.61785961474234308 0.78628843083848265 0 
-0.52517463143487964 0.85099448088529828 0 
-0.51443953521904118 0.8575266553312596 0 
-0.83752803904902706 -0.54639434825654221 0 
-0.84432792455417893 -0.53582679647254738 0 
-0.85099448089378893 -0.52517463142112142 0 
-0.85752665533139727 -0.51443953521881169 0 
-0.79399039739323984 -0.60793029933317599 0 
-0.80156698365648327 -0.59790498468556608 0 
-0.55687561485480086 -0.83059590029092212 0 
-0.56726894748800771 -0.82353259875723672 0 
-0.72896862576488153 -0.68454710769271399 0 
-0.73751311574694767 -0.67533280988060207 0 
-0.7624425095685573 -0.64705596326963899 0 
-0.77051324138044675 -0.63742399143536899 0 
-0.39137366794684508 0.92023184689394044 0 
-0.37977909660268527 0.92507720639071422 0 
-0.6936533040409143 -0.72030902659422713 0 
-0.70264996803104907 -0.71153567895500913 0 
-0.37977909426043038 -0.92507720735229826 0 
-0.39137366553956171 -0.92023184791775559 0 
-0.28501926147682471 -0.95852178931269238 0 
-0.29704158055608559 -0.95486454506424234 0 
-0.49272734002125468 -0.87018375553418537 0 
-0.50362320008509731 -0.86392341809679296 0 
-0.087851196233661097 -0.99613360917113658 0 
-0.1003617145105129 -0.99495101701566713 0 
-0.40290643437936119 -0.91524117320830223 0 
-0.414375579633324 -0.91010597130419202 0 
-0.18738131394233629 -0.98228725085142155 0 
-0.19970997981797359 -0.97985505252619098 0 
-0.1997099810858172 0.97985505226778435 0 
-0.18738131509939471 0.98228725063070088 0 
-0.21200710917580659 -0.97726812373008343 0 
-0.2242707601593299 -0.97452687296839402 0 
-0.075326805736436256 0.99715890024486331 0 
-0.062790519701709763 0.99802672841742535 0 
-0.12533323390640119 0.99211470127126089 0 
-0.11285638518082181 0.9936113104851001 0 
0.025130095343616161 0.99968418928580682 0 
0.037690182545293979 0.99928947264529033 0 
-0.24868988787832649 0.96858316094544272 0 
-0.2364989976984492 0.97163173275044334 0 
0.087851196792472899 -0.99613360912185378 0 
0.075326805736436256 -0.99715890024486331 0 
-0.050244318315765958 0.99873695659917583 0 
-0.037690182768860443 0.99928947263685808 0 
0.075326805262060231 0.99715890028069831 0 
0.087851196233661097 0.99613360917113658 0 
0.062790519701709763 -0.99802672841742535 0 
0.050244318315765958 -0.99873695659917583 0 
0.15022558859348131 0.98865174481803353 0 
0.16263716463396249 0.98668594430032563 0 
0.33281954545743492 -0.94299053556305978 0 
0.32094361070059663 -0.94709830469200185 0 
0.47070393348978068 -0.88229122572835783 0 
0.45957986191437611 -0.88813644814451953 0 
0.36812455146300588 0.92977648637194565 0 
0.37977909426043038 0.92507720735229826 0 
0.45957985915595778 0.88813644957190563 0 
0.47070393069000049 0.88229122722204556 0 
0.70264996803104907 0.71153567895500913 0 
0.71153567546371099 0.70264997156649811 0 
0.7624425095685573 0.64705596326963899 0 
0.77051324138044675 0.63742399143536899 0 
0.53582679647665477 -0.84432792455157235 0 
0.52517463143487964 -0.85099448088529828 0 
0.52517462836115747 0.85099448278218592 0 
0.53582679337066352 0.84432792652269428 0 
0.69365330759251476 -0.72030902317405698 0 
0.68454710769723415 -0.7289686257606367 0 
0.67533280987866506 -0.73751311574872125 0 
0.66601186917750299 -0.74594114386772414 0 
0.98456433444101521 0.17502305947137561 0 
0.98668594413193966 0.16263716565552569 0 
0.80156698365648327 0.59790498468556608 0 
0.80901699320962916 0.58778525389639613 0 
0.85099448089378893 0.52517463142112142 0 
0.85752665533139727 0.51443953521881169 0 
0.96202767186366378 -0.27295193453899341 0 
0.95852178931903964 -0.28501926145547879 0 
0.72030902662512974 -0.69365330400882408 0 
0.71153567898059711 -0.70264996800513746 0 
0.88813644959427296 -0.45957985911273302 0 
0.88229122724646125 -0.4707039306442356 0 
0.95852178877008432 0.28501926330161931 0 
0.96202767136102996 0.27295193631054182 0 
0.97985505226745806 0.19970998108741869 0 
0.98228725062602196 0.18738131512392259 0 
0.99211470137020719 -0.1253332331231608 0 
0.99046142576566865 -0.13779029018852859 0 
0.77846230022060492 0.62769136296052763 0 
0.78628843083879185 0.61785961474194961 0 
0.91524117209297151 0.40290643691294342 0 
0.97163173311916773 -0.23649899618358319 0 
0.96858316135414846 -0.24868988628652289 0 
0.94709830537284057 -0.32094360869145488 0 
0.94299053629952578 -0.3328195433707774 0 
0.76244251249926587 -0.64705595981631059 0 
0.99968418928156422 0.025130095512386409 0 
0.99992104420338168 0.012566039917921859 0 
-0.95852178931903964 0.28501926145547879 0 
-0.93873385809481391 0.34464292197349089 0 
-0.97452687297349117 0.2242707601371812 0 
-0.95105651664388025 0.30901699330167698 0 
-0.94709830537284057 0.32094360869145488 0 
-0.98668594430290757 0.1626371646182985 0 
-0.94299053629952578 0.3328195433707774 0 
-0.97985505253106908 0.19970997979404009 0 
-0.85752665717157628 0.51443953215139082 0 
-0.8235325988114518 0.56726894740930112 0 
-0.81633925193506851 0.57757270170091368 0 
-0.83752804114888357 0.54639434503782525 0 
-0.99495101701693223 0.1003617144979706 0 
-0.9996841892859325 0.025130095338616851 0 
-0.77846230297074537 0.62769135954980559 0 
-0.99046142576566865 0.13779029018852859 0 
-0.87630668088368047 0.48175367257409413 0 
-0.87018375554591709 0.49272734000053581 0 
-0.99873695659911066 -0.050244318317061068 0 
-0.99046142564460016 -0.13779029105879059 0 
-0.9921147012720769 -0.1253332338999418 0 
-0.72896862909459692 0.68454710414692721 0 
-0.72030902662512974 0.69365330400882408 0 
-0.80156698616741018 0.59790498131935221 0 
-0.79399039998046705 0.60793029595411507 0 
-0.99361131048614348 -0.1128563851716359 0 
-0.99495101695468113 -0.1003617151151065 0 
-0.99802672844259355 0.062790519301671177 0 
-0.99715890028149889 0.075326805251463139 0 
-0.75425138225977362 0.65658575400264418 0 
-0.70264997158507558 0.71153567544536556 0 
-0.69365330759251476 0.72030902317405698 0 
-0.98456433444101521 -0.17502305947137561 0 
-0.98668594413193966 -0.16263716565552569 0 
-0.99613360912241145 -0.087851196786150137 0 
-0.67533280987866506 0.73751311574872125 0 
-0.66601186917750299 0.74594114386772414 0 
-0.65658575747428294 0.7542513792376665 0 
-0.96538163863208093 -0.26084150703451758 0 
-0.86392341811851192 0.50362320004784011 0 
-0.99613360917205562 0.087851196223241237 0 
-0.96202767136102996 -0.27295193631054182 0 
-0.9886517446749018 -0.15022558953544729 0 
-0.95852178877008432 -0.28501926330161931 0 
-0.95486454447740798 -0.297041582442513 0 
-0.94299053554331624 -0.33281954551337523 0 
-0.93873385728101366 -0.34464292419010928 0 
-0.93432894205476702 -0.35641187976668193 0 
-0.5463943482383844 0.83752803906087292 0 
-0.92977648545233371 -0.36812455378568032 0 
-0.53582679647665477 0.84432792455157235 0 
-0.92507720636490731 -0.37977909666554682 0 
-0.91524117209297151 -0.40290643691294342 0 
-0.9202318468662779 -0.39137366801188761 0 
-0.91010597012826555 -0.4143755822160477 0 
-0.8994052509465591 -0.43711576792625212 0 
-0.90482705187705315 -0.42577929281669002 0 
-0.8938414234992621 -0.44838321738978221 0 
-0.50362320303411845 0.86392341637766434 0 
-0.78628843083879185 -0.61785961474194961 0 
-0.88813644812533044 -0.45957986195145911 0 
-0.7203090231880771 -0.69365330757795574 0 
-0.49272734292049308 0.87018375389253888 0 
-0.87630667929007877 -0.48175367547284481 0 
-0.88229122571193219 -0.47070393352056922 0 
-0.64705595985611575 -0.76244251246548467 0 
-0.65658575402629016 -0.75425138223918953 0 
-0.48175367544551662 0.87630667930510253 0 
-0.47070393348978068 0.88229122572835783 0 
-0.45957986191437611 0.88813644814451953 0 
-0.77846230022060492 -0.62769136296052763 0 
-0.57757270179531661 -0.81633925186827705 0 
-0.86392341637781711 -0.50362320303385621 0 
-0.83059589816630808 -0.55687561802372354 0 
-0.48175367260902668 -0.87630668086447605 0 
-0.87018375388787894 -0.492727342928723 0 
-0.80901699320962916 -0.58778525389639613 0 
-0.82353259655488642 -0.5672689506852695 0 
-0.36812455370849978 0.9297764854828916 0 
-0.74594114387968813 -0.66601186916410304 0 
-0.81633924959916204 -0.57757270500247593 0 
-0.58778525065892573 -0.80901699556178908 0 
-0.71153567546371099 -0.70264997156649811 0 
-0.44838321733692738 0.893841423525776 0 
-0.66601186569298032 -0.74594114697887237 0 
-0.67533280638211157 -0.73751311895047766 0 
-0.30901699332318461 -0.95105651663689206 0 
-0.75425137924689212 -0.65658575746368497 0 
-0.28501926326373289 0.95852178878134997 0 
-0.27295193627932579 0.96202767136988676 0 
-0.62769135960674916 -0.77846230292483054 0 
-0.63742398804540945 -0.77051324418486522 0 
-0.11285638449734441 -0.99361131056273089 0 
-0.087851196792472899 0.99613360912185378 0 
-0.59790498141741699 -0.80156698609426169 0 
-0.68454710417190456 -0.72896862907114157 0 
-0.17502305945363211 0.98456433444416946 0 
-0.54639434511286877 -0.83752804109992596 0 
-0.61785961140999679 -0.78628843345701571 0 
0 -1 0 
-0.01256603983302035 -0.99992104420444861 0 
-0.43711576787450052 0.89940525097171065 0 
-0.35641187969971799 0.93432894208031125 0 
-0.51443953220380501 -0.85752665714013243 0 
-0.42577929275672588 0.90482705190527002 0 
0.01256603983302035 0.99992104420444861 0 
-0.60793029603316473 -0.79399039991994158 0 
-0.47070393069000049 -0.88229122722204556 0 
-0.32094360871490513 -0.94709830536489392 0 
-0.53582679337066352 -0.84432792652269428 0 
-0.40290643685192601 0.91524117211983258 0 
0.10036171512427081 -0.99495101695375676 0 
-0.42577929017716132 -0.90482705311912104 0 
0.11285638449734441 0.99361131056273089 0 
0.125333233138784 0.99211470136823354 0 
-0.52517462836115747 -0.85099448278218592 0 
-0.26084150701436559 0.96538163863752591 0 
-0.36812455146300588 -0.92977648637194565 0 
-0.41437558215961828 0.91010597015395811 0 
-0.10036171512427081 0.99495101695375676 0 
-0.34464292413145298 0.93873385730254855 0 
0.1997099810858172 -0.97985505226778435 0 
0.18738131509939471 -0.98228725063070088 0 
-0.16263716564059749 0.98668594413440025 0 
-0.43711576522042678 -0.89940525226160462 0 
0.21200710917580659 0.97726812373008343 0 
0.2242707601593299 0.97452687296839402 0 
-0.30901699523093079 0.95105651601702768 0 
-0.29704158239784462 0.95486454449130342 0 
0 1 0 
-0.35641187753024572 -0.9343289429078846 0 
-0.125333233138784 -0.99211470136823354 0 
0.29704158239784462 -0.95486454449130342 0 
0.28501926326373289 -0.95852178878134997 0 
-0.32094361070059663 0.94709830469200185 0 
0.30901699332318461 0.95105651663689206 0 
0.32094360871490513 0.94709830536489392 0 
-0.075326805262060231 -0.99715890028069831 0 
-0.17502305838290061 -0.98456433463451021 0 
-0.33281954545743492 0.94299053556305978 0 
-0.21200711052306229 0.97726812343781178 0 
-0.15022558953167139 0.98865174467547556 0 
0.11285638518082181 -0.9936113104851001 0 
-0.025130095343616161 -0.99968418928580682 0 
-0.037690182545293979 -0.99928947264529033 0 
0.39137366794684508 -0.92023184689394044 0 
0.37977909660268527 -0.92507720639071422 0 
-0.012566039908832319 0.99992104420349592 0 
0.414375579633324 0.91010597130419202 0 
-0.16263716463396249 -0.98668594430032563 0 
-0.22427076158351389 0.97452687264064231 0 
0.025130095505061689 -0.9996841892817484 0 
0.012566039908832319 -0.99992104420349592 0 
0.17502305945363211 -0.98456433444416946 0 
-0.062790519312899085 -0.99802672844188722 0 
0.050244318013096763 0.99873695661440243 0 
-0.050244318013096763 -0.99873695661440243 0 
-0.13779029106062579 0.99046142564434481 0 
0.23649899621517501 0.9716317331114781 0 
0.48175367544551662 -0.87630667930510253 0 
0.1003617145105129 0.99495101701566713 0 
-0.025130095505061689 0.9996841892817484 0 
0.49272734002125468 0.87018375553418537 0 
0.50362320008509731 0.86392341809679296 0 
0.12533323390640119 -0.99211470127126089 0 
0.037690182768860443 -0.99928947263685808 0 
0.13779029020827599 0.9904614257629214 0 
0.29704158055608559 0.95486454506424234 0 
0.56726895068709737 -0.82353259655362732 0 
0.55687561802889873 -0.8305958981628383 0 
0.16263716564059749 -0.98668594413440025 0 
0.3328195433971684 0.94299053629021135 0 
0.57757270179531661 0.81633925186827705 0 
0.58778525065892573 0.80901699556178908 0 
0.062790519312899085 0.99802672844188722 0 
0.18738131394233629 0.98228725085142155 0 
0.19970997981797359 0.97985505252619098 0 
0.22427076158351389 -0.97452687264064231 0 
0.21200711052306229 -0.97726812343781178 0 
0.2486898863114442 0.96858316134774969 0 
0.42577929017716132 0.90482705311912104 0 
0.27295193627932579 -0.96202767136988676 0 
0.26084150701436559 -0.96538163863752591 0 
0.15022558953167139 -0.98865174467547556 0 
0.13779029106062579 -0.99046142564434481 0 
0.28501926147682471 0.95852178931269238 0 
0.17502305838290061 0.98456433463451021 0 
0.30901699523093079 -0.95105651601702768 0 
0.48175367260902668 0.87630668086447605 0 
0.34464292200244673 0.93873385808418319 0 
0.51443953220380501 0.85752665714013243 0 
0.26084150537988521 0.96538163907915475 0 
0.62769136295574157 -0.77846230022446394 0 
0.36812455370849978 -0.9297764854828916 0 
0.35641187969971799 -0.93432894208031125 0 
0.24868988787832649 -0.96858316094544272 0 
0.2364989976984492 -0.97163173275044334 0 
0.65658575402629016 0.75425138223918953 0 