<VTKFile type="UnstructuredGrid" version="0.1" byte_order="LittleEndian">
<UnstructuredGrid>
<Piece NumberOfPoints="500" NumberOfCells="500">
<PointData Vectors="real_part_grad_U_1_g_1">
<DataArray type="Float64" Name="real_part_grad_U_1_g_1" NumberOfComponents="3" format="ascii">
-45.4564 0 0
-49.9505 0 0
-4.44979 0 0
20.8687 0 0
-20.7532 0 0
-41.7421 0 0
-14.8242 -0 0
-16.1376 -0 0
-21.9854 -0 0
-40.2854 -0 0
-40.2855 -0 0
-21.9854 -0 0
28.4927 0 0
47.0925 0 0
-33.7668 -0 0
-6.57472 -0 0
-41.7454 -0 0
-32.5831 -0 0
-44.894 0 0
-28.4094 0 0
-47.5573 0 0
-35.5486 0 0
-32.9364 -0 0
-48.1208 -0 0
-40.1709 0 0
-49.9457 0 0
22.8982 0 0
44.1268 0 0
20.7952 0 0
29.0248 0 0
-47.0234 -0 0
-36.7799 -0 0
-49.3816 -0 0
49.9429 0 0
47.5901 0 0
-13.8789 -0 0
-13.3091 -0 0
-44.8359 0 0
-38.2174 0 0
-45.5395 0 0
-41.4549 0 0
19.8131 0 0
29.6615 0 0
-49.6806 0 0
-48.2477 0 0
38.2174 0 0
44.8359 0 0
41.7454 0 0
32.5831 0 0
-43.0508 -0 0
-45.661 -0 0
-49.5231 -0 0
-49.0514 0 0
-27.6065 -0 0
-30.6459 -0 0
36.7799 0 0
20.5255 0 0
48.9123 0 0
-49.9749 -0 0
-49.29 -0 0
-48.2477 0 0
-49.6806 0 0
40.2855 0 0
21.9854 0 0
20.5944 0 0
6.59395 0 0
-13.1187 -0 0
-13.3091 -0 0
-14.8242 -0 0
-19.8175 -0 0
-17.8076 -0 0
-42.59 -0 0
-49.9372 -0 0
-11.4488 0 0
-20.7952 0 0
-47.7953 -0 0
-45.661 -0 0
-19.5655 -0 0
-36.675 -0 0
-1.56766 -0 0
-24.9717 -0 0
45.1347 0 0
27.7863 0 0
-43.0109 0 0
-49.0514 0 0
-49.5231 -0 0
-44.6948 -0 0
45.4564 0 0
34.5313 0 0
20.8687 0 0
-4.44978 0 0
-47.4599 -0 0
-36.675 -0 0
20.5255 0 0
36.7799 0 0
32.9364 0 0
6.94739 0 0
-6.24098 0 0
-27.1909 0 0
6.94739 0 0
32.9364 0 0
49.6766 0 0
37.7575 0 0
-23.812 -0 0
2.41999 0 0
-47.4645 0 0
-47.6819 -0 0
48.1208 0 0
47.79 0 0
2.78417 0 0
-26.5898 0 0
-26.5899 0 0
2.78417 0 0
-46.1456 0 0
-48.817 -0 0
-29.2446 0 0
0.103333 0 0
-0.826143 -0 0
-29.8745 -0 0
-47.5508 -0 0
-47.5597 0 0
-6.57472 -0 0
-33.7668 -0 0
47.4645 0 0
29.2446 0 0
29.4321 0 0
47.5597 0 0
29.2446 0 0
47.4645 0 0
-0.103333 0 0
-29.4321 0 0
-47.0925 -0 0
-48.082 0 0
40.1709 0 0
16.6375 0 0
49.9821 0 0
41.7421 0 0
21.4474 0 0
-6.94739 -0 0
41.7421 0 0
49.9821 0 0
27.1909 0 0
42.5861 0 0
-20.5255 -0 0
-36.7799 -0 0
-49.8074 0 0
-45.1347 -0 0
-45.1347 -0 0
-49.8074 0 0
6.24099 0 0
-16.2099 0 0
-35.5486 0 0
-47.5573 0 0
43.0508 0 0
40.1164 0 0
-34.5313 0 0
-19.0027 0 0
49.5231 0 0
44.6948 0 0
41.4549 0 0
35.9443 0 0
49.6819 0 0
42.5861 0 0
-20.5944 -0 0
-6.59395 -0 0
35.9443 0 0
41.4549 0 0
47.7953 0 0
45.661 0 0
30.6459 0 0
33.8033 0 0
-47.0234 -0 0
-49.9505 0 0
-48.9123 0 0
49.6806 0 0
48.2477 0 0
11.4488 0 0
1.28171 0 0
-20.5255 -0 0
13.8789 0 0
13.3091 0 0
-35.9443 0 0
9.30527 0 0
-49.9749 -0 0
-20.7952 0 0
-11.4488 0 0
-40.1164 -0 0
-1.28171 0 0
-47.7953 -0 0
-44.6948 -0 0
-16.4822 0 0
1.18698 0 0
-43.0109 0 0
-24.7542 -0 0
-13.8789 -0 0
47.0234 0 0
-33.8033 -0 0
-8.30942 -0 0
-22.7828 -0 0
-16.1376 -0 0
-33.8033 -0 0
-30.6459 -0 0
-47.4599 -0 0
-49.6819 0 0
34.5313 0 0
45.4564 0 0
-27.6065 -0 0
-24.7542 -0 0
-17.8076 -0 0
-19.8175 -0 0
0.672843 0 0
-27.1909 0 0
-6.24099 0 0
-43.0508 -0 0
-40.1164 -0 0
-22.1437 -0 0
35.5486 0 0
47.5573 0 0
49.3816 0 0
-45.5395 0 0
-35.3811 -0 0
-22.1437 -0 0
-41.4549 0 0
-36.9941 -0 0
-35.9443 0 0
-29.0248 0 0
-1.28171 0 0
9.30528 0 0
19.8131 0 0
40.8046 0 0
29.6615 0 0
49.8074 0 0
38.2174 0 0
48.9123 0 0
44.8359 0 0
49.9429 0 0
41.7454 0 0
47.5901 0 0
32.5831 0 0
2.42 0 0
49.9505 0 0
20.5944 0 0
-49.6819 0 0
-23.812 -0 0
-8.30943 -0 0
6.59394 0 0
40.2854 0 0
49.3816 0 0
-43.2477 -0 0
-49.9821 0 0
-41.7421 0 0
47.0234 0 0
-28.4094 0 0
-35.3811 -0 0
-31.7918 0 0
-43.2477 -0 0
-22.7828 -0 0
19.0027 0 0
-16.4821 0 0
-21.4474 -0 0
-19.5655 -0 0
1.18699 0 0
-44.894 0 0
-42.5861 0 0
-20.7532 0 0
47.5573 0 0
35.5486 0 0
12.7145 0 0
0.672836 0 0
49.6766 0 0
44.1268 0 0
-1.56767 -0 0
21.9854 0 0
-29.8745 -0 0
-47.4645 0 0
-49.9372 -0 0
16.2099 0 0
31.1912 0 0
40.8046 0 0
-24.9717 -0 0
0 0 0
29.3886 0 0
6.74736 0 0
-42.8382 -0 0
27.7863 0 0
32.2943 0 0
-29.3886 -0 0
-42.59 -0 0
-49.9821 0 0
-16.6374 0 0
49.8074 0 0
48.1208 0 0
47.6819 0 0
32.2943 0 0
29.8745 0 0
0.826145 0 0
45.1347 0 0
22.8983 0 0
-21.4474 -0 0
47.79 0 0
-47.6819 -0 0
-49.9457 0 0
26.5899 0 0
-2.78417 0 0
48.082 0 0
6.74737 0 0
46.1456 0 0
48.817 0 0
12.7145 0 0
37.7575 0 0
0 0 0
-42.8382 -0 0
-0.826145 -0 0
-37.7575 0 0
-49.6766 0 0
-16.6375 0 0
-12.7145 0 0
16.6374 0 0
-29.2446 0 0
31.1912 0 0
-40.1709 0 0
-46.1456 0 0
47.0925 0 0
29.8745 0 0
47.5508 0 0
47.5597 0 0
-32.9364 -0 0
-6.94739 -0 0
29.3886 0 0
-47.79 0 0
48.082 0 0
-48.817 -0 0
-47.5508 -0 0
-29.3886 -0 0
-31.1912 0 0
0.103334 0 0
-29.4321 0 0
29.4321 0 0
28.4927 0 0
33.7668 0 0
43.2477 0 0
47.6819 0 0
47.5508 0 0
23.812 0 0
-2.41999 -0 0
0.826143 0 0
-47.5597 0 0
-28.4927 -0 0
-37.7575 0 0
4.44979 0 0
-20.8687 0 0
-48.082 0 0
40.1709 0 0
28.4094 0 0
44.894 0 0
-0.103334 0 0
-2.78417 0 0
26.5898 0 0
48.817 0 0
46.1456 0 0
6.57472 0 0
-32.2943 0 0
-44.1268 -0 0
-22.8983 -0 0
-47.0925 -0 0
-28.4927 -0 0
-49.6766 0 0
-31.1912 0 0
-12.7145 0 0
43.2477 0 0
49.9457 0 0
-27.7863 -0 0
-22.8982 -0 0
1.56766 0 0
21.4474 0 0
42.8382 0 0
6.57472 0 0
33.7668 0 0
-49.3816 -0 0
-40.8046 0 0
-44.1268 -0 0
-47.79 0 0
-48.1208 -0 0
-6.74737 0 0
27.1909 0 0
49.6819 0 0
20.7532 0 0
49.9457 0 0
42.8382 0 0
-0.672843 -0 0
-2.42 -0 0
23.812 0 0
-32.2943 0 0
-1.18698 0 0
-19.0027 0 0
-6.74736 0 0
16.4821 0 0
31.7918 0 0
-20.8687 0 0
4.44978 0 0
20.7532 0 0
35.3811 0 0
44.6948 0 0
22.7828 0 0
8.30943 0 0
-27.7863 -0 0
-47.5901 -0 0
24.9717 0 0
42.59 0 0
-49.9429 -0 0
49.9372 0 0
44.894 0 0
1.56767 0 0
-9.30527 0 0
-19.8131 0 0
42.59 0 0
24.9717 0 0
-40.8046 0 0
1.28171 0 0
11.4488 0 0
45.5395 0 0
48.2477 0 0
49.6806 0 0
43.0508 0 0
45.661 0 0
36.9941 0 0
22.1437 0 0
24.7542 0 0
19.8175 0 0
17.8076 0 0
6.24098 0 0
-16.2099 0 0
19.5655 0 0
36.675 0 0
35.3811 0 0
-0.672836 -0 0
-47.5901 -0 0
47.4599 0 0
-34.5313 0 0
-29.6615 0 0
36.675 0 0
19.5655 0 0
-1.18699 0 0
-9.30528 0 0
45.5395 0 0
49.5231 0 0
49.0514 0 0
-45.4564 0 0
43.0109 0 0
31.7918 0 0
-41.7454 -0 0
49.0514 0 0
-38.2174 0 0
-19.8131 0 0
8.30942 0 0
29.0248 0 0
-20.5944 -0 0
-32.5831 -0 0
47.7953 0 0
49.29 0 0
-44.8359 0 0
-48.9123 0 0
27.6065 0 0
24.7542 0 0
22.1437 0 0
-29.6615 0 0
43.0109 0 0
20.7952 0 0
49.9749 0 0
49.29 0 0
36.9941 0 0
30.6459 0 0
27.6065 0 0
49.9749 0 0
16.1376 0 0
17.8076 0 0
14.8242 0 0
13.1187 0 0
13.3091 0 0
13.8789 0 0
-6.59394 -0 0
19.0027 0 0
16.2099 0 0
47.4599 0 0
49.9505 0 0
19.8175 0 0
40.1164 0 0
49.9372 0 0
-42.5861 0 0
22.7828 0 0
-49.9429 -0 0
-49.29 -0 0
-29.0248 0 0
-31.7918 0 0
33.8033 0 0
16.1376 0 0
-36.9941 -0 0
16.4822 0 0
28.4094 0 0
14.8242 0 0
</DataArray>
<DataArray type="Float64" Name="imag_part_grad_U_1_g_1" NumberOfComponents="3" format="ascii">
-20.8259 -0 0
-2.22494 -0 0
-49.8016 -0 0
-45.4368 0 0
-45.4896 -0 0
-27.5245 -0 0
47.7519 0 0
47.3242 0 0
44.9071 0 0
29.6156 0 0
29.6156 0 0
44.9071 0 0
41.0873 0 0
16.8017 0 0
36.8755 0 0
49.5658 0 0
27.5195 0 0
37.9255 0 0
-22.0121 -0 0
-41.145 -0 0
-15.4371 -0 0
-35.161 -0 0
37.619 0 0
13.5788 0 0
-29.7708 -0 0
-2.32983 -0 0
44.4485 0 0
23.5123 0 0
-45.4704 0 0
-40.7132 0 0
16.9942 0 0
33.8709 0 0
7.83927 0 0
2.38884 0 0
15.3358 0 0
48.0351 0 0
48.1961 0 0
-22.1301 -0 0
-32.2402 -0 0
-20.6436 -0 0
-27.9551 -0 0
-45.9069 0 0
-40.2516 0 0
-5.64293 -0 0
-13.1209 -0 0
-32.2402 0 0
-22.1301 0 0
27.5195 0 0
37.9255 0 0
25.4288 0 0
20.3732 0 0
6.88918 0 0
-9.69345 -0 0
41.6879 0 0
39.5074 0 0
33.8709 0 0
45.5928 0 0
-10.3724 0 0
1.58261 0 0
8.39604 0 0
-13.1209 -0 0
-5.64293 -0 0
29.6156 0 0
44.9071 0 0
45.5617 0 0
49.5633 0 0
48.2483 0 0
48.1961 0 0
47.7519 0 0
45.905 0 0
46.7214 0 0
26.1934 0 0
2.5049 0 0
-48.6716 -0 0
-45.4704 -0 0
14.6836 0 0
20.3732 0 0
46.0129 0 0
33.9845 0 0
49.9754 0 0
43.3176 0 0
21.5141 0 0
41.5683 0 0
-25.4963 -0 0
-9.69346 -0 0
6.88918 0 0
22.4136 0 0
-20.8259 0 0
-36.1606 0 0
-45.4368 0 0
-49.8016 -0 0
15.7338 0 0
33.9845 0 0
45.5928 0 0
33.8709 0 0
37.619 0 0
49.515 0 0
-49.609 -0 0
-41.9602 -0 0
49.515 0 0
37.619 0 0
-5.67753 0 0
-32.7776 0 0
43.9658 0 0
49.9414 0 0
-15.7202 -0 0
15.0479 0 0
13.5788 0 0
-14.7008 0 0
-49.9224 0 0
-42.3436 -0 0
-42.3436 -0 0
-49.9224 0 0
-19.2505 -0 0
10.8121 0 0
-40.5555 -0 0
-49.9999 0 0
49.9932 0 0
40.0939 0 0
15.4571 0 0
-15.4296 -0 0
49.5658 0 0
36.8755 0 0
-15.7202 0 0
-40.5555 0 0
-40.4197 0 0
-15.4296 0 0
-40.5555 0 0
-15.7202 0 0
-49.9999 -0 0
-40.4197 -0 0
16.8017 0 0
-13.7157 -0 0
-29.7708 0 0
-47.1508 0 0
-1.33725 0 0
-27.5245 0 0
45.1664 0 0
49.515 0 0
-27.5245 0 0
-1.33726 0 0
-41.9602 0 0
-26.1996 0 0
45.5928 0 0
33.8709 0 0
-4.38447 -0 0
21.5141 0 0
21.5141 0 0
-4.38447 -0 0
-49.609 0 0
-47.2995 -0 0
-35.161 -0 0
-15.4371 -0 0
25.4288 0 0
29.8442 0 0
-36.1606 -0 0
-46.2482 -0 0
6.88918 0 0
22.4136 0 0
-27.9551 0 0
-34.7564 0 0
-5.63124 0 0
-26.1996 0 0
45.5617 0 0
49.5633 0 0
-34.7564 0 0
-27.9551 0 0
14.6836 0 0
20.3732 0 0
39.5074 0 0
36.842 0 0
16.9942 0 0
-2.22493 -0 0
-10.3724 -0 0
-5.64293 0 0
-13.1209 0 0
-48.6716 0 0
-49.9836 0 0
45.5928 0 0
48.0351 0 0
48.1961 0 0
-34.7564 -0 0
-49.1265 0 0
1.58261 0 0
-45.4704 -0 0
-48.6716 -0 0
29.8442 0 0
-49.9836 -0 0
14.6836 0 0
22.4136 0 0
-47.2053 -0 0
-49.9859 0 0
-25.4963 -0 0
43.4423 0 0
48.0351 0 0
16.9942 0 0
36.842 0 0
49.3047 0 0
44.5078 0 0
47.3242 0 0
36.842 0 0
39.5074 0 0
15.7338 0 0
-5.63124 -0 0
-36.1606 0 0
-20.8259 0 0
41.6879 0 0
43.4423 0 0
46.7214 0 0
45.905 0 0
49.9955 0 0
-41.9602 -0 0
-49.609 -0 0
25.4288 0 0
29.8442 0 0
44.8292 0 0
-35.161 0 0
-15.4371 0 0
7.83927 0 0
-20.6436 -0 0
35.3296 0 0
44.8292 0 0
-27.9551 -0 0
33.6368 0 0
-34.7564 -0 0
-40.7132 -0 0
-49.9836 -0 0
-49.1265 0 0
-45.9069 0 0
-28.8961 0 0
-40.2516 0 0
-4.38447 0 0
-32.2402 0 0
-10.3724 0 0
-22.1301 0 0
2.38884 0 0
27.5195 0 0
15.3358 0 0
37.9255 0 0
49.9414 0 0
-2.22493 0 0
45.5617 0 0
-5.63124 -0 0
43.9658 0 0
49.3047 0 0
49.5633 0 0
29.6156 0 0
7.83928 0 0
25.0926 0 0
-1.33725 -0 0
-27.5245 -0 0
16.9942 0 0
-41.145 -0 0
35.3296 0 0
-38.5912 -0 0
25.0926 0 0
44.5078 0 0
-46.2482 0 0
-47.2053 -0 0
45.1665 0 0
46.0129 0 0
-49.9859 0 0
-22.0121 -0 0
-26.1996 -0 0
-45.4896 -0 0
-15.4371 0 0
-35.161 0 0
-48.3564 0 0
49.9955 0 0
-5.67754 0 0
23.5123 0 0
49.9754 0 0
44.9071 0 0
40.0939 0 0
-15.7202 -0 0
2.50489 0 0
-47.2995 0 0
-39.0783 0 0
-28.8961 0 0
43.3176 0 0
50 0 0
40.4513 0 0
-49.5426 0 0
25.7854 0 0
41.5683 0 0
-38.1717 0 0
40.4513 0 0
26.1934 0 0
-1.33726 -0 0
-47.1508 -0 0
-4.38447 0 0
13.5788 0 0
15.0479 0 0
-38.1717 0 0
40.0939 0 0
49.9932 0 0
21.5141 0 0
44.4485 0 0
45.1664 0 0
-14.7008 0 0
15.0479 0 0
-2.32983 -0 0
-42.3436 0 0
-49.9224 -0 0
-13.7157 0 0
-49.5426 0 0
-19.2505 0 0
10.8121 0 0
-48.3564 0 0
-32.7776 0 0
50 0 0
25.7854 0 0
49.9932 0 0
-32.7776 -0 0
-5.67754 -0 0
-47.1508 -0 0
-48.3564 -0 0
-47.1508 0 0
-40.5555 -0 0
-39.0783 0 0
-29.7708 -0 0
-19.2505 -0 0
16.8017 0 0
40.0939 0 0
15.4571 0 0
-15.4296 0 0
37.619 0 0
49.515 0 0
40.4513 0 0
-14.7008 -0 0
-13.7157 0 0
10.8121 0 0
15.4571 0 0
40.4513 0 0
-39.0783 -0 0
-49.9999 0 0
-40.4197 -0 0
-40.4197 0 0
41.0873 0 0
36.8755 0 0
25.0926 0 0
15.0479 0 0
15.4571 0 0
43.9658 0 0
49.9414 0 0
49.9932 0 0
-15.4296 -0 0
41.0873 0 0
-32.7776 -0 0
-49.8016 0 0
-45.4368 -0 0
-13.7157 -0 0
-29.7708 0 0
-41.145 0 0
-22.0121 0 0
-49.9999 -0 0
-49.9224 -0 0
-42.3436 0 0
10.8121 0 0
-19.2505 0 0
49.5658 0 0
-38.1717 -0 0
23.5123 0 0
44.4485 0 0
16.8017 0 0
41.0873 0 0
-5.67753 -0 0
-39.0783 -0 0
-48.3564 -0 0
25.0926 0 0
-2.32983 0 0
41.5683 0 0
44.4485 0 0
49.9754 0 0
45.1665 0 0
25.7854 0 0
49.5658 0 0
36.8755 0 0
7.83928 0 0
-28.8961 -0 0
23.5123 0 0
-14.7008 -0 0
13.5788 0 0
-49.5426 -0 0
-41.9602 0 0
-5.63124 0 0
-45.4896 0 0
-2.32983 0 0
25.7854 0 0
49.9955 0 0
49.9414 0 0
43.9658 0 0
-38.1717 -0 0
-49.9859 -0 0
-46.2482 -0 0
-49.5426 -0 0
-47.2053 0 0
-38.5912 0 0
-45.4368 -0 0
-49.8016 0 0
-45.4896 0 0
35.3296 0 0
22.4136 0 0
44.5078 0 0
49.3047 0 0
41.5683 0 0
15.3358 0 0
43.3176 0 0
26.1934 0 0
2.38884 0 0
2.5049 0 0
-22.0121 0 0
49.9754 0 0
-49.1265 -0 0
-45.9069 -0 0
26.1934 0 0
43.3176 0 0
-28.8961 -0 0
-49.9836 0 0
-48.6716 0 0
-20.6436 0 0
-13.1209 0 0
-5.64293 0 0
25.4288 0 0
20.3732 0 0
33.6368 0 0
44.8292 0 0
43.4423 0 0
45.905 0 0
46.7214 0 0
-49.609 0 0
-47.2995 -0 0
46.0129 0 0
33.9845 0 0
35.3296 0 0
49.9955 0 0
15.3358 0 0
15.7338 0 0
-36.1606 -0 0
-40.2516 -0 0
33.9845 0 0
46.0129 0 0
-49.9859 -0 0
-49.1265 -0 0
-20.6436 0 0
6.88918 0 0
-9.69345 0 0
-20.8259 -0 0
-25.4963 0 0
-38.5912 0 0
27.5195 0 0
-9.69346 0 0
-32.2402 -0 0
-45.9069 -0 0
49.3047 0 0
-40.7132 0 0
45.5617 0 0
37.9255 0 0
14.6836 0 0
8.39604 0 0
-22.1301 -0 0
-10.3724 -0 0
41.6879 0 0
43.4423 0 0
44.8292 0 0
-40.2516 -0 0
-25.4963 0 0
-45.4704 0 0
1.58261 0 0
8.39604 0 0
33.6368 0 0
39.5074 0 0
41.6879 0 0
1.58261 0 0
47.3242 0 0
46.7214 0 0
47.7519 0 0
48.2483 0 0
48.1961 0 0
48.0351 0 0
49.5633 0 0
-46.2482 0 0
-47.2995 0 0
15.7338 0 0
-2.22494 0 0
45.905 0 0
29.8442 0 0
2.50489 0 0
-26.1996 -0 0
44.5078 0 0
2.38884 0 0
8.39604 0 0
-40.7132 -0 0
-38.5912 -0 0
36.842 0 0
47.3242 0 0
33.6368 0 0
-47.2053 0 0
-41.145 0 0
47.7519 0 0
</DataArray>
</PointData>
<Points>
<DataArray type="Float64" Name="Nodes" NumberOfComponents="3" format="ascii">
0.79399039998046705 -0.60793029595411507 0 
0.78628843351483357 -0.61785961133641776 0 
-0.56726895068709737 0.82353259655362732 0 
-0.55687561802889873 0.8305958981628383 0 
-0.44838321464588482 -0.8938414248757004 0 
-0.45957985915595778 -0.88813644957190563 0 
-0.99928947264556478 0.037690182538015871 0 
-0.99873695661487616 0.05024431800367999 0 
0.63742398804540945 0.77051324418486522 0 
0.64705595985611575 0.76244251246548467 0 
0.64705596326668291 -0.76244250957106607 0 
0.63742399142807882 -0.7705132413864777 0 
-0.13779029020827599 -0.9904614257629214 0 
-0.15022558859348131 -0.98865174481803353 0 
-0.23649899621517501 -0.9716317331114781 0 
-0.2486898863114442 -0.96858316134774969 0 
0.89940525226734302 -0.43711576520861972 0 
0.8938414248906561 -0.448383214616071 0 
-0.58778525387953762 0.80901699322187759 0 
-0.57757270500629865 0.81633924959645732 0 
0.66601186569298032 0.74594114697887237 0 
0.67533280638211157 0.73751311895047766 0 
0.39137366553956171 0.92023184791775559 0 
0.40290643437936119 0.91524117320830223 0 
-0.3328195433971684 -0.94299053629021135 0 
-0.34464292200244673 -0.93873385808418319 0 
-0.26084150537988521 -0.96538163907915475 0 
-0.27295193455717831 -0.96202767185850424 0 
0.95105651599935559 0.30901699528532001 0 
0.95486454447740798 0.297041582442513 0 
0.77846230297074537 -0.62769135954980559 0 
0.77051324423201828 -0.63742398798841116 0 
0.65658575747428294 -0.7542513792376665 0 
-0.91010597131810578 0.41437557960276478 0 
-0.90482705312775724 0.42577929015880839 0 
-0.99968418928156422 -0.025130095512386409 0 
-0.99992104420338168 -0.012566039917921859 0 
0.9202318468662779 0.39137366801188761 0 
0.92507720636490731 0.37977909666554682 0 
-0.96538163908421326 0.26084150536116341 0 
-0.96202767186366378 0.27295193453899341 0 
-0.93432894292032453 0.35641187749763492 0 
-0.92977648638558408 0.36812455142855921 0 
-0.97163173311916773 0.23649899618358319 0 
-0.96858316135414846 0.24868988628652289 0 
-0.92507720736718335 0.379779094224173 0 
-0.92023184793724755 0.39137366549373082 0 
-0.89940525226734302 0.43711576520861972 0 
-0.8938414248906561 0.448383214616071 0 
-0.98456433463803417 0.1750230583630768 0 
-0.98228725085559643 0.18738131392045099 0 
-0.85099448281515477 0.52517462830773465 0 
-0.84432792656359901 0.53582679330620797 0 
-0.99361131056411789 0.1128563844851326 0 
-0.99211470137020719 0.1253332331231608 0 
-0.77051324423201828 0.63742398798841116 0 
-0.76244251249926587 0.64705595981631059 0 
-0.9152411732333583 0.40290643432244388 0 
-0.97452687263944138 -0.22427076158873249 0 
-0.97726812343618963 -0.21200711053053961 0 
-0.968583160944962 -0.24868988788019861 0 
-0.97163173274994707 -0.23649899770048799 0 
-0.64705596326668291 0.76244250957106607 0 
-0.63742399142807882 0.7705132413864777 0 
-0.88813644959427296 0.45957985911273302 0 
-0.88229122724646125 0.4707039306442356 0 
-1 0 0 
-0.99992104420447581 0.01256603983085847 0 
-0.99928947263668588 -0.037690182773426187 0 
-0.99715890024508624 -0.075326805733484326 0 
-0.99802672841747164 -0.062790519700972949 0 
-0.60793029933019138 0.79399039739552513 0 
-0.59790498467304098 0.80156698366582602 0 
-0.94709830467022604 -0.32094361076485628 0 
-0.95105651599935559 -0.30901699528532001 0 
-0.97985505226745806 -0.19970998108741869 0 
-0.98228725062602196 -0.18738131512392259 0 
-0.74594114700727432 0.66601186566116966 0 
-0.7375131189755999 0.67533280635467619 0 
-0.62769136295574157 0.77846230022446394 0 
-0.61785961474234308 0.78628843083848265 0 
-0.52517463143487964 0.85099448088529828 0 
-0.51443953521904118 0.8575266553312596 0 
-0.83752803904902706 -0.54639434825654221 0 
-0.84432792455417893 -0.53582679647254738 0 
-0.85099448089378893 -0.52517463142112142 0 
-0.85752665533139727 -0.51443953521881169 0 
-0.79399039739323984 -0.60793029933317599 0 
-0.80156698365648327 -0.59790498468556608 0 
-0.55687561485480086 -0.83059590029092212 0 
-0.56726894748800771 -0.82353259875723672 0 
-0.72896862576488153 -0.68454710769271399 0 
-0.73751311574694767 -0.67533280988060207 0 
-0.7624425095685573 -0.64705596326963899 0 
-0.77051324138044675 -0.63742399143536899 0 
-0.39137366794684508 0.92023184689394044 0 
-0.37977909660268527 0.92507720639071422 0 
-0.6936533040409143 -0.72030902659422713 0 
-0.70264996803104907 -0.71153567895500913 0 
-0.37977909426043038 -0.92507720735229826 0 
-0.39137366553956171 -0.92023184791775559 0 
-0.28501926147682471 -0.95852178931269238 0 
-0.29704158055608559 -0.95486454506424234 0 
-0.49272734002125468 -0.87018375553418537 0 
-0.50362320008509731 -0.86392341809679296 0 
-0.087851196233661097 -0.99613360917113658 0 
-0.1003617145105129 -0.99495101701566713 0 
-0.40290643437936119 -0.91524117320830223 0 
-0.414375579633324 -0.91010597130419202 0 
-0.18738131394233629 -0.98228725085142155 0 
-0.19970997981797359 -0.97985505252619098 0 
-0.1997099810858172 0.97985505226778435 0 
-0.18738131509939471 0.98228725063070088 0 
-0.21200710917580659 -0.97726812373008343 0 
-0.2242707601593299 -0.97452687296839402 0 
-0.075326805736436256 0.99715890024486331 0 
-0.062790519701709763 0.99802672841742535 0 
-0.12533323390640119 0.99211470127126089 0 
-0.11285638518082181 0.9936113104851001 0 
0.025130095343616161 0.99968418928580682 0 
0.037690182545293979 0.99928947264529033 0 
-0.24868988787832649 0.96858316094544272 0 
-0.2364989976984492 0.97163173275044334 0 
0.087851196792472899 -0.99613360912185378 0 
0.075326805736436256 -0.99715890024486331 0 
-0.050244318315765958 0.99873695659917583 0 
-0.037690182768860443 0.99928947263685808 0 
0.075326805262060231 0.99715890028069831 0 
0.087851196233661097 0.99613360917113658 0 
0.062790519701709763 -0.99802672841742535 0 
0.050244318315765958 -0.99873695659917583 0 
0.15022558859348131 0.98865174481803353 0 
0.16263716463396249 0.98668594430032563 0 
0.33281954545743492 -0.94299053556305978 0 
0.32094361070059663 -0.94709830469200185 0 
0.47070393348978068 -0.88229122572835783 0 
0.45957986191437611 -0.88813644814451953 0 
0.36812455146300588 0.92977648637194565 0 
0.37977909426043038 0.92507720735229826 0 
0.45957985915595778 0.88813644957190563 0 
0.47070393069000049 0.88229122722204556 0 
0.70264996803104907 0.71153567895500913 0 
0.71153567546371099 0.70264997156649811 0 
0.7624425095685573 0.64705596326963899 0 
0.77051324138044675 0.63742399143536899 0 
0.53582679647665477 -0.84432792455157235 0 
0.52517463143487964 -0.85099448088529828 0 
0.52517462836115747 0.85099448278218592 0 
0.53582679337066352 0.84432792652269428 0 
0.69365330759251476 -0.72030902317405698 0 
0.68454710769723415 -0.7289686257606367 0 
0.67533280987866506 -0.73751311574872125 0 
0.66601186917750299 -0.74594114386772414 0 
0.98456433444101521 0.17502305947137561 0 
0.98668594413193966 0.16263716565552569 0 
0.80156698365648327 0.59790498468556608 0 
0.80901699320962916 0.58778525389639613 0 
0.85099448089378893 0.52517463142112142 0 
0.85752665533139727 0.51443953521881169 0 
0.96202767186366378 -0.27295193453899341 0 
0.95852178931903964 -0.28501926145547879 0 
0.72030902662512974 -0.69365330400882408 0 
0.71153567898059711 -0.70264996800513746 0 
0.88813644959427296 -0.45957985911273302 0 
0.88229122724646125 -0.4707039306442356 0 
0.95852178877008432 0.28501926330161931 0 
0.96202767136102996 0.27295193631054182 0 
0.97985505226745806 0.19970998108741869 0 
0.98228725062602196 0.18738131512392259 0 
0.99211470137020719 -0.1253332331231608 0 
0.99046142576566865 -0.13779029018852859 0 
0.77846230022060492 0.62769136296052763 0 
0.78628843083879185 0.61785961474194961 0 
0.91524117209297151 0.40290643691294342 0 
0.97163173311916773 -0.23649899618358319 0 
0.96858316135414846 -0.24868988628652289 0 
0.94709830537284057 -0.32094360869145488 0 
0.94299053629952578 -0.3328195433707774 0 
0.76244251249926587 -0.64705595981631059 0 
0.99968418928156422 0.025130095512386409 0 
0.99992104420338168 0.012566039917921859 0 
-0.95852178931903964 0.28501926145547879 0 
-0.93873385809481391 0.34464292197349089 0 
-0.97452687297349117 0.2242707601371812 0 
-0.95105651664388025 0.30901699330167698 0 
-0.94709830537284057 0.32094360869145488 0 
-0.98668594430290757 0.1626371646182985 0 
-0.94299053629952578 0.3328195433707774 0 
-0.97985505253106908 0.19970997979404009 0 
-0.85752665717157628 0.51443953215139082 0 
-0.8235325988114518 0.56726894740930112 0 
-0.81633925193506851 0.57757270170091368 0 
-0.83752804114888357 0.54639434503782525 0 
-0.99495101701693223 0.1003617144979706 0 
-0.9996841892859325 0.025130095338616851 0 
-0.77846230297074537 0.62769135954980559 0 
-0.99046142576566865 0.13779029018852859 0 
-0.87630668088368047 0.48175367257409413 0 
-0.87018375554591709 0.49272734000053581 0 
-0.99873695659911066 -0.050244318317061068 0 
-0.99046142564460016 -0.13779029105879059 0 
-0.9921147012720769 -0.1253332338999418 0 
-0.72896862909459692 0.68454710414692721 0 
-0.72030902662512974 0.69365330400882408 0 
-0.80156698616741018 0.59790498131935221 0 
-0.79399039998046705 0.60793029595411507 0 
-0.99361131048614348 -0.1128563851716359 0 
-0.99495101695468113 -0.1003617151151065 0 
-0.99802672844259355 0.062790519301671177 0 
-0.99715890028149889 0.075326805251463139 0 
-0.75425138225977362 0.65658575400264418 0 
-0.70264997158507558 0.71153567544536556 0 
-0.69365330759251476 0.72030902317405698 0 
-0.98456433444101521 -0.17502305947137561 0 
-0.98668594413193966 -0.16263716565552569 0 
-0.99613360912241145 -0.087851196786150137 0 
-0.67533280987866506 0.73751311574872125 0 
-0.66601186917750299 0.74594114386772414 0 
-0.65658575747428294 0.7542513792376665 0 
-0.96538163863208093 -0.26084150703451758 0 
-0.86392341811851192 0.50362320004784011 0 
-0.99613360917205562 0.087851196223241237 0 
-0.96202767136102996 -0.27295193631054182 0 
-0.9886517446749018 -0.15022558953544729 0 
-0.95852178877008432 -0.28501926330161931 0 
-0.95486454447740798 -0.297041582442513 0 
-0.94299053554331624 -0.33281954551337523 0 
-0.93873385728101366 -0.34464292419010928 0 
-0.93432894205476702 -0.35641187976668193 0 
-0.5463943482383844 0.83752803906087292 0 
-0.92977648545233371 -0.36812455378568032 0 
-0.53582679647665477 0.84432792455157235 0 
-0.92507720636490731 -0.37977909666554682 0 
-0.91524117209297151 -0.40290643691294342 0 
-0.9202318468662779 -0.39137366801188761 0 
-0.91010597012826555 -0.4143755822160477 0 
-0.8994052509465591 -0.43711576792625212 0 
-0.90482705187705315 -0.42577929281669002 0 
-0.8938414234992621 -0.44838321738978221 0 
-0.50362320303411845 0.86392341637766434 0 
-0.78628843083879185 -0.61785961474194961 0 
-0.88813644812533044 -0.45957986195145911 0 
-0.7203090231880771 -0.69365330757795574 0 
-0.49272734292049308 0.87018375389253888 0 
-0.87630667929007877 -0.48175367547284481 0 
-0.88229122571193219 -0.47070393352056922 0 
-0.64705595985611575 -0.76244251246548467 0 
-0.65658575402629016 -0.75425138223918953 0 
-0.48175367544551662 0.87630667930510253 0 
-0.47070393348978068 0.88229122572835783 0 
-0.45957986191437611 0.88813644814451953 0 
-0.77846230022060492 -0.62769136296052763 0 
-0.57757270179531661 -0.81633925186827705 0 
-0.86392341637781711 -0.50362320303385621 0 
-0.83059589816630808 -0.55687561802372354 0 
-0.48175367260902668 -0.87630668086447605 0 
-0.87018375388787894 -0.492727342928723 0 
-0.80901699320962916 -0.58778525389639613 0 
-0.82353259655488642 -0.5672689506852695 0 
-0.36812455370849978 0.9297764854828916 0 
-0.74594114387968813 -0.66601186916410304 0 
-0.81633924959916204 -0.57757270500247593 0 
-0.58778525065892573 -0.80901699556178908 0 
-0.71153567546371099 -0.70264997156649811 0 
-0.44838321733692738 0.893841423525776 0 
-0.66601186569298032 -0.74594114697887237 0 
-0.67533280638211157 -0.73751311895047766 0 
-0.30901699332318461 -0.95105651663689206 0 
-0.75425137924689212 -0.65658575746368497 0 
-0.28501926326373289 0.95852178878134997 0 
-0.27295193627932579 0.96202767136988676 0 
-0.62769135960674916 -0.77846230292483054 0 
-0.63742398804540945 -0.77051324418486522 0 
-0.11285638449734441 -0.99361131056273089 0 
-0.087851196792472899 0.99613360912185378 0 
-0.59790498141741699 -0.80156698609426169 0 
-0.68454710417190456 -0.72896862907114157 0 
-0.17502305945363211 0.98456433444416946 0 
-0.54639434511286877 -0.83752804109992596 0 
-0.61785961140999679 -0.78628843345701571 0 
0 -1 0 
-0.01256603983302035 -0.99992104420444861 0 
-0.43711576787450052 0.89940525097171065 0 
-0.35641187969971799 0.93432894208031125 0 
-0.51443953220380501 -0.85752665714013243 0 
-0.42577929275672588 0.90482705190527002 0 
0.01256603983302035 0.99992104420444861 0 
-0.60793029603316473 -0.79399039991994158 0 
-0.47070393069000049 -0.88229122722204556 0 
-0.32094360871490513 -0.94709830536489392 0 
-0.53582679337066352 -0.84432792652269428 0 
-0.40290643685192601 0.91524117211983258 0 
0.10036171512427081 -0.99495101695375676 0 
-0.42577929017716132 -0.90482705311912104 0 
0.11285638449734441 0.99361131056273089 0 
0.125333233138784 0.99211470136823354 0 
-0.52517462836115747 -0.85099448278218592 0 
-0.26084150701436559 0.96538163863752591 0 
-0.36812455146300588 -0.92977648637194565 0 
-0.41437558215961828 0.91010597015395811 0 
-0.10036171512427081 0.99495101695375676 0 
-0.34464292413145298 0.93873385730254855 0 
0.1997099810858172 -0.97985505226778435 0 
0.18738131509939471 -0.98228725063070088 0 
-0.16263716564059749 0.98668594413440025 0 
-0.43711576522042678 -0.89940525226160462 0 
0.21200710917580659 0.97726812373008343 0 
0.2242707601593299 0.97452687296839402 0 
-0.30901699523093079 0.95105651601702768 0 
-0.29704158239784462 0.95486454449130342 0 
0 1 0 
-0.35641187753024572 -0.9343289429078846 0 
-0.125333233138784 -0.99211470136823354 0 
0.29704158239784462 -0.95486454449130342 0 
0.28501926326373289 -0.95852178878134997 0 
-0.32094361070059663 0.94709830469200185 0 
0.30901699332318461 0.95105651663689206 0 
0.32094360871490513 0.94709830536489392 0 
-0.075326805262060231 -0.99715890028069831 0 
-0.17502305838290061 -0.98456433463451021 0 
-0.33281954545743492 0.94299053556305978 0 
-0.21200711052306229 0.97726812343781178 0 
-0.15022558953167139 0.98865174467547556 0 
0.11285638518082181 -0.9936113104851001 0 
-0.025130095343616161 -0.99968418928580682 0 
-0.037690182545293979 -0.99928947264529033 0 
0.39137366794684508 -0.92023184689394044 0 
0.37977909660268527 -0.92507720639071422 0 
-0.012566039908832319 0.99992104420349592 0 
0.414375579633324 0.91010597130419202 0 
-0.16263716463396249 -0.98668594430032563 0 
-0.22427076158351389 0.97452687264064231 0 
0.025130095505061689 -0.9996841892817484 0 
0.012566039908832319 -0.99992104420349592 0 
0.17502305945363211 -0.98456433444416946 0 
-0.062790519312899085 -0.99802672844188722 0 
0.050244318013096763 0.99873695661440243 0 
-0.050244318013096763 -0.99873695661440243 0 
-0.13779029106062579 0.99046142564434481 0 
0.23649899621517501 0.9716317331114781 0 
0.48175367544551662 -0.87630667930510253 0 
0.1003617145105129 0.99495101701566713 0 
-0.025130095505061689 0.9996841892817484 0 
0.49272734002125468 0.87018375553418537 0 
0.50362320008509731 0.86392341809679296 0 
0.12533323390640119 -0.99211470127126089 0 
0.037690182768860443 -0.99928947263685808 0 
0.13779029020827599 0.9904614257629214 0 
0.29704158055608559 0.95486454506424234 0 
0.56726895068709737 -0.82353259655362732 0 
0.55687561802889873 -0.8305958981628383 0 
0.16263716564059749 -0.98668594413440025 0 
0.3328195433971684 0.94299053629021135 0 
0.57757270179531661 0.81633925186827705 0 
0.58778525065892573 0.80901699556178908 0 
0.062790519312899085 0.99802672844188722 0 
0.18738131394233629 0.98228725085142155 0 
0.19970997981797359 0.97985505252619098 0 
0.22427076158351389 -0.97452687264064231 0 
0.21200711052306229 -0.97726812343781178 0 
0.2486898863114442 0.96858316134774969 0 
0.42577929017716132 0.90482705311912104 0 
0.27295193627932579 -0.96202767136988676 0 
0.26084150701436559 -0.96538163863752591 0 
0.15022558953167139 -0.98865174467547556 0 
0.13779029106062579 -0.99046142564434481 0 
0.28501926147682471 0.95852178931269238 0 
0.17502305838290061 0.98456433463451021 0 
0.30901699523093079 -0.95105651601702768 0 
0.48175367260902668 0.87630668086447605 0 
0.34464292200244673 0.93873385808418319 0 
0.51443953220380501 0.85752665714013243 0 
0.26084150537988521 0.96538163907915475 0 
0.62769136295574157 -0.77846230022446394 0 
0.36812455370849978 -0.9297764854828916 0 
0.35641187969971799 -0.93432894208031125 0 
0.24868988787832649 -0.96858316094544272 0 
0.2364989976984492 -0.97163173275044334 0 
0.65658575402629016 0.75425138223918953 0 
0.5463943482383844 -0.83752803906087292 0 
0.27295193455717831 0.96202767185850424 0 
0.41437558215961828 -0.91010597015395811 0 
0.40290643685192601 -0.91524117211983258 0 
0.43711576522042678 0.89940525226160462 0 
0.70264997158507558 -0.71153567544536556 0 