<VTKFile type="UnstructuredGrid" version="0.1" byte_order="LittleEndian">
<UnstructuredGrid>
<Piece NumberOfPoints="252" NumberOfCells="252">
<PointData Scalars="abs_term_l0">
<DataArray type="Float64" Name="real_part_term_l0" format="ascii">
1.95493
2.83428
3.18795
7.24147
4.78187
5.62066
0.169147
1.7877
1.96102
1.09498
6.18276
3.55859
-3.38364
-10.5651
2.8384
9.96893
-0.642596
-6.43314
11.2242
7.89037
16.6283
13.0946
14.7421
14.3707
-0.209602
-1.28475
-7.41764
-7.69667
-8.49147
-9.4544
-3.99503
-2.76853
3.15154
3.09209
2.53942
1.43314
-15.7203
-12.6781
-0.0995415
-1.8561
-3.49476
-4.36008
-12.1796
-15.4139
-20.2724
11.3433
13.3217
13.2449
2.85609
2.16514
6.00527
3.8209
18.5512
14.032
15.7376
13.7352
9.88506
6.55011
6.75065
9.4914
7.2731
10.715
14.0622
4.93373
9.42149
4.01402
7.40484
-0.578226
1.86596
8.34881
6.28736
3.86923
0.636092
9.01355
9.31816
3.85125
2.08172
-0.826328
-3.83603
9.42022
10.1176
13.0033
3.1825
2.60719
0.255454
3.07105
-1.48109
-5.96795
-7.42173
5.95861
9.45864
0.873422
-0.683721
-6.20439
-5.65763
5.17524
8.07693
-1.44505
-5.22693
-6.99948
-6.71449
-0.17491
1.02802
-6.10924
-7.64158
-7.34893
-18.8208
-22.8243
-21.8487
-10.2187
-22.3691
-4.32898
-9.9565
-2.57973
-9.28003
-7.24475
-2.90396
-0.0803496
-0.16498
0.543292
-3.68568
4.66617
-0.980376
-7.8621
3.39878
-1.61844
6.04038
5.60329
3.79185
-1.0766
11.2462
16.8144
7.92383
21.4222
3.65207
1.25095
26.7976
24.6826
-3.18731
-0.730691
27.8155
27.8116
26.9071
9.77269
14.3764
5.27171
24.8871
4.54744
18.1495
22.1548
6.04947
0.143467
1.65094
0.787002
-0.00370862
4.1257
4.9787
3.31872
15.2967
2.41432
9.35493
3.44894
-1.70545
15.6688
8.98547
-1.12172
1.44874
10.7759
15.3288
10.3457
1.86652
-3.98018
2.89483
1.37769
3.11575
5.72108
9.0194
5.23139
5.27436
6.82148
9.88899
1.46226
1.89334
-3.87173
-3.95358
-14.932
-14.9005
1.00254
-1.22606
11.1991
-0.0788386
-2.26862
-0.335137
-6.25509
-4.83926
5.17325
12.4742
-3.32236
7.88451
2.73922
0.50832
8.92824
0.510892
5.29921
-0.0634497
-5.16091
-1.07635
-8.3034
-4.2477
-0.933989
-2.76694
12.0683
-7.21093
-3.20561
-4.18631
-2.0796
0.973052
-8.19723
-6.80034
3.00527
10.9291
9.07721
-9.91189
-5.34456
-9.04781
0.76632
-13.4088
-6.00292
6.64782
8.51338
6.16555
-16.2878
7.38258
9.05589
3.80911
4.3646
4.7519
7.31046
-5.33924
0.112815
8.99299
9.35774
13.6593
-11.0177
-3.63502
-16.9989
-3.75995
-7.02946
-3.96991
18.1678
-8.5004
-2.47721
</DataArray>
<DataArray type="Float64" Name="imag_part_term_l0" format="ascii">
5.81185
8.36925
6.01677
3.76725
7.92095
9.28234
3.35687
4.59797
0.65546
2.62236
-8.54212
-10.2356
-8.42115
-3.67598
-7.45361
-0.671906
13.3965
10.4444
7.23665
7.85965
-7.00355
-8.24256
4.64645
1.04243
2.02074
1.80059
-4.41022
-2.38076
1.24438
4.14567
-6.7581
-4.64956
10.5733
12.3983
13.8888
14.7811
15.3686
13.4439
14.7825
14.1122
12.248
9.37019
5.93153
-6.58337
-1.31995
-0.989709
1.80461
4.9319
0.0888364
5.44984
-12.1601
-9.38722
-4.1655
-1.90311
-4.78643
-13.0831
-15.4636
-1.11458
0.681925
-0.8002
2.09236
-3.02825
-5.19509
11.995
10.8993
-7.00669
-6.51973
-3.0287
-5.08929
1.57874
3.89961
3.19547
2.33338
-1.96343
-1.22876
4.90918
4.82778
-7.0025
-6.9067
1.61909
-1.03884
8.2469
2.12481
2.85494
2.85136
-6.72619
-4.75419
-1.4354
-0.675963
-1.86654
-2.77253
-2.15366
-2.41452
-5.95938
-1.88826
-0.928954
-4.02659
-2.08195
-8.22983
-7.51783
-8.74618
0.35014
3.40592
-8.95862
1.84969
-2.19392
15.3351
9.07955
13.5735
10.1196
4.25683
5.98926
-10.0579
-12.1004
5.70907
3.64516
2.4251
-0.628317
2.89716
9.74885
8.35687
-12.0533
2.50618
6.78708
6.31275
0.138052
10.4626
11.0778
-4.24881
2.45318
-10.0876
-6.91534
-2.58232
-2.75937
-2.44795
-2.19123
6.14171
1.67278
-4.3888
-4.81053
10.3474
14.1427
17.4249
19.3355
21.4896
-4.41126
19.9148
6.5193
-0.622719
21.7522
15.5245
-7.07979
-1.96227
0.232706
-2.59762
-5.91713
-2.07434
10.8136
-9.08536
3.83999
-4.13959
10.7215
5.87518
-8.41427
-7.32859
-0.161033
-12.0371
3.33183
2.26181
-2.33832
0.878978
-0.366652
2.04232
-5.61439
-1.457
1.88504
-1.36366
-15.1282
2.08366
-3.37547
-12.9997
3.88716
2.79377
4.35148
6.85149
1.91979
6.62733
3.90496
4.88207
-0.898707
3.92316
2.57628
0.542836
1.89141
3.7402
-5.45116
-1.43381
-2.15655
-4.01226
2.11403
-0.762341
-3.34442
11.3596
-1.83865
0.0832238
7.27667
7.09829
5.99931
4.56198
4.80086
2.57183
6.47802
-0.177083
5.38217
5.1452
5.22777
-0.869252
6.29695
-0.151111
-6.4419
-3.30975
11.1897
5.80277
2.3476
4.70197
2.14168
-9.00333
-10.1829
-7.18769
-6.29012
-5.23816
0.722633
10.6158
12.5607
10.7574
15.1912
9.54585
15.3321
9.43282
9.45379
14.3269
-3.04458
-11.4268
8.9466
-0.226756
-4.84057
4.70432
-5.31062
4.00532
22.1971
5.93891
9.40327
</DataArray>
<DataArray type="Float64" Name="abs_term_l0" format="ascii">
6.13183
8.83614
6.80915
8.16278
9.25245
10.8514
3.36113
4.93327
2.06766
2.84179
10.5449
10.8366
9.0755
11.1864
7.97577
9.99155
13.4119
12.2667
13.3548
11.137
18.043
15.4728
15.457
14.4084
2.03158
2.21195
8.62968
8.05647
8.58217
10.3234
7.85062
5.41139
11.033
12.7781
14.1191
14.8504
21.9846
18.479
14.7828
14.2337
12.7368
10.3349
13.5471
16.7609
20.3153
11.3864
13.4434
14.1333
2.85747
5.86417
13.5621
10.135
19.0131
14.1604
16.4494
18.969
18.3532
6.64427
6.78501
9.52507
7.56809
11.1347
14.9912
12.97
14.407
8.07502
9.86603
3.0834
5.42058
8.49677
7.3985
5.01816
2.41852
9.22492
9.39882
6.23957
5.25747
7.05108
7.90048
9.55834
10.1707
15.398
3.82663
3.86628
2.86278
7.39412
4.97955
6.13815
7.45245
6.24412
9.85661
2.32403
2.50946
8.60282
5.96442
5.25795
9.02498
2.5343
9.74941
10.2718
11.0263
0.391397
3.55769
10.8434
7.86226
7.66943
24.2773
24.564
25.7217
14.3816
22.7705
7.38994
14.1525
12.3723
10.8955
8.11009
3.7834
0.633433
2.90185
9.76398
9.13354
12.925
2.69111
10.3864
7.16955
1.62432
12.0811
12.4143
5.69478
2.67902
15.1075
18.1809
8.33399
21.5992
4.39659
2.52317
27.4924
24.7393
5.42407
4.86571
29.6778
31.201
32.0565
21.6649
25.8551
6.87387
31.8742
7.94861
18.1602
31.0482
16.6615
7.08125
2.56439
0.820686
2.59762
7.21345
5.39354
11.3114
17.7913
4.53591
10.2299
11.2626
6.1177
17.7851
11.5951
1.13322
12.124
11.2792
15.4947
10.6067
2.06313
3.99703
3.54276
5.78095
3.43958
6.02364
9.12191
16.0072
5.67102
7.61094
16.3335
4.1531
3.37489
5.82457
7.91035
15.0549
16.3078
4.03161
5.03367
11.2351
3.92395
3.43276
0.637956
6.53479
6.11617
7.51516
12.5564
3.96091
8.84668
3.46013
0.916271
9.53408
11.3711
5.60912
0.104652
8.92104
7.17943
10.2439
6.23334
4.89087
3.7776
13.697
7.2131
6.26448
6.63312
5.62622
1.30477
10.3366
6.80202
7.10842
11.4193
14.4085
11.4855
5.83743
10.1966
2.27465
16.151
11.8206
9.79063
10.5851
8.09026
16.3038
12.9305
15.4848
11.4119
15.8057
10.6632
16.9858
10.8391
9.45446
16.9155
9.84057
17.8086
14.1927
3.64209
17.6746
6.02228
8.80999
5.63939
28.6842
10.3695
9.72409
</DataArray>
</PointData>
<Points>
<DataArray type="Float64" Name="Nodes" NumberOfComponents="3" format="ascii">
-0.87630668076889695 0.48175367278288461 0 
-0.86074202784517662 0.50904141432792394 0 
0.95105651658034551 -0.30901699349721679 0 
0.9408807693160548 -0.33873791924027169 0 
-1.2572645455811271 0.44017108418111428 0 
-1.266245939201105 0.4113487785756646 0 
-1.2518227814665459 0.53013416999020202 0 
-1.25 0.5 0 
-1.312872313061999 0.66578066467846475 0 
-1.2942540335457671 0.64201618671057781 0 
-1.53013417002029 0.25182278147019971 0 
-1.559828915984963 0.25726454562206152 0 
-1.58865122169747 0.2662459393046912 0 
-1.6161807928432219 0.27863599349867141 0 
-1.588651221997047 0.7337540605816939 0 
-1.559828916184369 0.74273545432878918 0 
-1.7337540607631361 0.58865122151862415 0 
-1.721364006587129 0.61618079267974324 0 
-0.48175367544770797 0.87630667930389783 0 
-0.45399050102082861 0.89100652353552212 0 
-0.5877852509012087 -0.80901699538576022 0 
-0.61290705219334829 -0.79015501350789408 0 
0.30901699516189118 -0.95105651603946006 0 
0.27899110672892191 -0.96029368547656879 0 
0.58778525379630264 -0.80901699328235133 0 
0.56208337933128916 -0.82708057326932671 0 
0.80901699551015693 -0.58778525072999133 0 
0.79015501360443485 -0.61290705206888862 0 
0.98768834067081901 -0.15643446456239821 0 
0.98228725083291424 -0.1873813140393554 0 
-0.9408807693160548 0.33873791924027169 0 
-0.92977648630236087 0.36812455163875679 0 
-0.84432792641783072 0.53582679353590212 0 
-0.82708057530368673 0.56208337633781935 0 
-0.80901699551015693 0.58778525072999133 0 
-0.79015501360443485 0.61290705206888862 0 
-1 0 0 
-0.99950656036934626 0.031410758963106349 0 
-0.77051324411217093 0.63742398813328172 0 
-0.75011107106367292 0.66131186369799044 0 
-0.72896862897845582 0.68454710427060494 0 
-0.70710678286330397 0.70710677950979117 0 
-1.7057459668363431 0.64201618615699507 0 
-0.98228725063975919 -0.1873813150519095 0 
-0.98768834053608445 -0.15643446541307851 0 
-0.56208337933128916 0.82708057326932671 0 
-0.53582679640856989 0.84432792459478034 0 
-0.50904141711147788 0.86074202619898743 0 
-0.68454710433943211 -0.72896862891382275 0 
-0.70710677958314294 -0.70710678278995209 0 
-0.062790519341618625 -0.99802672844008034 0 
-0.094108313026724816 -0.99556196463066227 0 
-0.56208337646484929 -0.82708057521735723 0 
0.094108313531618359 -0.99556196458293578 0 
0.062790519668725869 -0.99802672841950046 0 
-0.27899110517471432 -0.96029368592810782 0 
-0.30901699349992939 -0.95105651657946422 0 
-0.27899110672892191 0.96029368547656879 0 
-0.24868988780537241 0.96858316096417418 0 
0.031410758967821799 0.99950656036919805 0 
0.062790519341618625 0.99802672844008034 0 
-0.18738131405188921 -0.98228725083052326 0 
-0.21814324072400021 -0.9759167620890784 0 
0.39714789167744158 -0.9177546252327814 0 
0.36812455363585911 -0.92977648551165215 0 
-0.062790519668725869 0.99802672841950046 0 
-0.031410759136543863 0.99950656036389574 0 
0.18738131405188921 0.98228725083052326 0 
0.21814324072400021 0.9759167620890784 0 
0.33873791925441099 0.94088076931096432 0 
0.36812455165848051 0.92977648629455178 0 
0.094108313026724816 0.99556196463066227 0 
0.12533323322374071 0.99211470135750102 0 
0.18738131502489261 -0.98228725064491296 0 
0.1564344654032542 -0.98768834053764043 0 
0.39714788950020791 0.91775462617495462 0 
0.42577929038825668 0.90482705301978705 0 
0.86074202784517662 -0.50904141432792394 0 
0.84432792641783072 -0.53582679353590212 0 
0.92977648630236087 -0.36812455163875679 0 
0.91775462618821557 -0.39714788946956359 0 
0.3387379211275684 -0.94088076863658621 0 
0.53582679364511043 0.84432792634852505 0 
0.56208337646484929 0.82708057521735723 0 
0.61290705520712452 -0.79015501117016962 0 
0.9980267284405886 -0.062790519333539282 0 
0.99556196463116731 -0.094108313021382256 0 
0.82708057333773399 0.5620833792306309 0 
0.84432792465327522 0.53582679631639663 0 
0.90482705194036828 0.42577929268213838 0 
0.91775462523216067 0.39714789167887599 0 
0.77051324149932077 0.63742399129167504 0 
0.79015501120611531 0.61290705516078348 0 
0.82708057530368673 -0.56208337633781935 0 
0.99211470135858748 -0.12533323321514031 0 
0.99802672841907714 0.062790519675453738 0 
0.999506560363421 0.031410759151650022 0 
-0.91775462618821557 0.39714788946956359 0 
-0.95105651658034551 0.30901699349721679 0 
-0.97591676209266931 0.21814324070793539 0 
-0.96858316131707767 0.24868988643090389 0 
-0.90482705302901967 0.42577929036863649 0 
-0.89100652484613974 0.45399049844859679 0 
-0.96029368593167119 0.27899110516244918 0 
-0.99211470135858748 0.12533323321514031 0 
-0.98768834067081901 0.15643446456239821 0 
-0.999506560363421 -0.031410759151650022 0 
-0.99556196458314472 -0.094108313529407461 0 
-0.99802672841907714 -0.062790519675453738 0 
-0.9980267284405886 0.062790519333539282 0 
-0.99211470127848644 -0.12533323384920569 0 
-0.68454710760728288 0.72896862584510669 0 
-0.97591676181559384 -0.21814324194749979 0 
-0.96858316096725805 -0.24868988779336129 0 
-1.4113487779925871 0.2662459394222374 0 
-1.4401710837962349 0.25726454567599139 0 
-0.66131186695076749 0.75011106819596418 0 
-0.6374239913316645 0.77051324146623867 0 
-1.278635993582462 0.61618079300287265 0 
-1.3342193348980449 0.3128723134371787 0 
-1.357983812862257 0.29425403384061799 0 
-0.96029368546809213 -0.27899110675809902 0 
-1.25726454562919 0.5598289160138824 0 
-1.3838192066719079 0.27863599375315068 0 
-1.251822781457008 0.46986583008835742 0 
-1.4698658298155181 0.25182278149013632 0 
-1.2786359933892679 0.38381920736522779 0 
-1.294254033140406 0.3579838138766897 0 
-1.5 0.25 0 
-1.266245939331138 0.58865122176720497 0 
-0.95105651603465335 -0.30901699517668468 0 
-0.94088076863611025 -0.33873792112889051 0 
-0.58778525379630264 0.80901699328235133 0 
-0.92977648550379599 -0.36812455365570163 0 
-0.61290705520712452 0.79015501117016962 0 
-1.334219335550032 0.6871276871404316 0 
-0.90482705194036828 -0.42577929268213838 0 
-0.91775462523216067 -0.39714789167887599 0 
-1.383819207159412 0.72136400650271126 0 
-1.3579838133934889 0.70574596652606525 0 
-0.89100652359224275 -0.45399050090950821 0 
-0.87630667937442985 -0.4817536753194106 0 
-0.86074202626105578 -0.50904141700652594 0 
-0.77051324149932077 -0.63742399129167504 0 
-0.79015501120611531 -0.61290705516078348 0 
-0.66131186376584672 -0.75011107100384955 0 
-0.84432792465327522 -0.53582679631639663 0 
-0.42577929266590542 0.90482705194800694 0 
-0.53582679364511043 -0.84432792634852505 0 
-0.82708057333773399 -0.5620833792306309 0 
-0.75011106825769447 -0.66131186688074817 0 
-0.39714788950020791 -0.91775462617495462 0 
-0.42577929038825668 -0.90482705301978705 0 
-0.1564344654032542 0.98768834053764043 0 
-0.12533323385154191 0.99211470127819124 0 
-0.12533323322374071 -0.99211470135750102 0 
-0.30901699516189118 0.95105651603946006 0 
-0.72896862591932343 -0.6845471075282501 0 
-0.2486898864477238 -0.96858316131275912 0 
-0.39714789167744158 0.9177546252327814 0 
0 1 0 
-1.4698658299752401 0.74817721852925756 0 
-1.4401710839966291 0.74273545437340127 0 
0.031410759136543863 -0.99950656036389574 0 
-0.63742398824018343 -0.77051324402373422 0 
0.1564344645724027 0.98768834066923439 0 
-0.36812455165848051 -0.92977648629455178 0 
-0.48175367287098458 -0.87630668072046347 0 
-0.50904141443397422 -0.86074202778245867 0 
0.21814324194882481 -0.97591676181529774 0 
-0.36812455363585911 0.92977648551165215 0 
-1.411348778248686 0.73375406067488824 0 
-0.18738131502489261 0.98228725064491296 0 
-0.094108313531618359 0.99556196458293578 0 
-0.3387379211275684 0.94088076863658621 0 
-0.45399049848079492 -0.89100652482973397 0 
0.30901699349992939 0.95105651657946422 0 
-0.33873791925441099 -0.94088076931096432 0 
-0.21814324194882481 0.97591676181529774 0 
-0.1564344645724027 -0.98768834066923439 0 
-0.031410758967821799 -0.99950656036919805 0 
0.45399049848079492 0.89100652482973397 0 
0.48175367287098458 0.87630668072046347 0 
0.50904141711147788 -0.86074202619898743 0 
0.48175367544770797 -0.87630667930389783 0 
-1.642016186592504 0.29425403346426682 0 
-1.665780664401171 0.31287231281633859 0 
0.5877852509012087 0.80901699538576022 0 
0.61290705219334829 0.79015501350789408 0 
0.12533323385154191 -0.99211470127819124 0 
0.6374239913316645 -0.77051324146623867 0 
0.70710677958314294 0.70710678278995209 0 
0.72896862591932343 0.6845471075282501 0 
0.75011107106367292 -0.66131186369799044 0 
0.72896862897845582 -0.68454710427060494 0 
0.2486898864477238 0.96858316131275912 0 
0.24868988780537241 -0.96858316096417418 0 
0.80901699334561472 0.58778525370922807 0 
0.27899110517471432 0.96029368592810782 0 
0.50904141443397422 0.86074202778245867 0 
0.89100652359224275 0.45399050090950821 0 
0.90482705302901967 -0.42577929036863649 0 
0.42577929266590542 -0.90482705194800694 0 
0.95105651603465335 0.30901699517668468 0 
0.96029368546809213 0.27899110675809902 0 
0.96858316131707767 -0.24868988643090389 0 
0.96029368593167119 -0.27899110516244918 0 
0.98768834053608445 0.15643446541307851 0 
0.99211470127848644 0.12533323384920569 0 
0.66131186695076749 -0.75011106819596418 0 
0.53582679640856989 -0.84432792459478034 0 
-1.5301341701754461 0.74817721851096097 0 
0.77051324411217093 -0.63742398813328172 0 
0.63742398824018343 0.77051324402373422 0 
0.66131186376584672 0.75011107100384955 0 
0.68454710760728288 -0.72896862584510669 0 
0.75011106825769447 0.66131186688074817 0 
0.97591676209266931 -0.21814324070793539 0 
0.86074202626105578 0.50904141700652594 0 
0.87630668076889695 -0.48175367278288461 0 
0.92977648550379599 0.36812455365570163 0 
-1.5 0.75 0 
0.98228725063975919 0.1873813150519095 0 
0.96858316096725805 0.24868988779336129 0 
0.97591676181559384 0.21814324194749979 0 
0.99556196458314472 0.094108313529407461 0 
-1.6420161871300321 0.70574596616470464 0 
-1.616180793322106 0.72136400624999142 0 
0.99950656036934626 -0.031410758963106349 0 
1 0 0 
0.89100652484613974 -0.45399049844859679 0 
-1.687127687501532 0.66578066404236935 0 
-1.74273545433858 0.44017108385535159 0 
-1.748177218520671 0.46986582990452258 0 
-1.31287231246682 0.33421933599335429 0 
-1.74273545439973 0.55982891589655359 0 
-1.7337540606278521 0.41134877812466042 0 
-1.7481772185300439 0.53013417001828333 0 
-1.705745966404379 0.35798381321719619 0 
-1.7213640063564639 0.38381920688076132 0 
-1.75 0.5 0 
0.94088076863611025 0.33873792112889051 0 
0 -1 0 
-1.687127686894317 0.33421933527222658 0 
0.87630667937442985 0.4817536753194106 0 
-1.6657806650875879 0.68712768657554923 0 
0.70710678286330397 -0.70710677950979117 0 
-0.98228725083291424 0.1873813140393554 0 
0.68454710433943211 0.72896862891382275 0 
-0.80901699334561472 -0.58778525370922807 0 
-0.99556196463116731 0.094108313021382256 0 
0.45399050102082861 -0.89100652353552212 0 
</DataArray>
</Points>
<Cells>
<DataArray type="Int32" Name="connectivity" format="ascii">
 0 1
 2 3
 4 5
 6 7
 8 9
 10 11
 12 13
 14 15
 16 17
 18 19
 20 21
 22 23
 24 25
 26 27
 28 29
 30 31
 32 33
 34 35
 36 37
 38 39
 40 41
 17 42
 43 44
 45 46
 47 18
 48 49
 50 51
 52 20
 53 54
 55 56
 57 58
 59 60
 61 62
 63 64
 65 66
 67 68
 69 70
 71 72
 73 74
 75 76
 77 78
 79 80
 81 22
 82 83
 84 24
 85 86
 87 88
 89 90
 91 92
 93 26
 94 28
 95 96
 31 97
 98 30
 99 100
 101 102
 103 98
 104 105
 33 34
 106 36
 35 38
 107 108
 1 32
 37 109
 39 40
 44 110
 41 111
 112 43
 108 106
 113 112
 114 115
 116 117
 9 118
 119 120
 121 113
 122 6
 123 114
 120 123
 124 4
 115 125
 126 127
 5 126
 125 128
 111 116
 118 129
 130 121
 128 10
 131 130
 132 45
 133 131
 134 132
 135 8
 136 137
 137 133
 46 47
 138 139
 139 135
 140 136
 141 140
 11 12
 142 141
 143 144
 145 48
 146 142
 19 147
 148 52
 149 146
 150 143
 151 152
 153 154
 51 155
 156 57
 157 150
 158 55
 147 159
 160 59
 161 162
 49 157
 54 163
 21 164
 164 145
 165 67
 166 151
 167 168
 169 73
 159 170
 171 138
 172 153
 154 173
 168 148
 174 156
 175 167
 176 69
 170 174
 177 166
 152 175
 64 81
 178 172
 179 61
 173 65
 180 50
 181 182
 183 184
 58 178
 62 158
 185 186
 56 177
 60 71
 162 171
 187 188
 189 53
 190 84
 155 179
 191 192
 193 194
 68 195
 23 196
 197 87
 78 93
 13 185
 198 176
 182 199
 70 75
 200 89
 80 201
 202 63
 203 204
 205 206
 76 181
 207 208
 86 94
 209 190
 199 82
 196 169
 195 198
 25 210
 15 211
 83 187
 212 193
 213 214
 215 209
 216 91
 27 212
 217 205
 88 218
 219 77
 90 220
 221 161
 222 207
 3 79
 223 224
 29 217
 208 225
 211 221
 226 227
 225 95
 228 85
 229 228
 96 229
 201 230
 42 231
 232 233
 127 234
 235 16
 236 232
 237 235
 238 239
 233 240
 240 237
 241 203
 242 180
 239 236
 163 242
 206 2
 210 183
 243 238
 204 223
 7 124
 218 244
 100 103
 231 245
 194 246
 246 215
 92 197
 105 247
 214 248
 72 165
 188 213
 117 134
 97 101
 129 122
 220 241
 234 119
 227 14
 249 149
 66 160
 186 243
 248 191
 102 0
 109 250
 74 189
 251 202
 224 222
 184 251
 247 99
 244 200
 192 216
 245 226
 250 104
 144 249
 230 219
 110 107
</DataArray>
<DataArray type="Int32" Name="offsets" format="ascii">
2 4 6 8 10 12 14 16 18 20 22 24 26 28 30 32 34 36 38 40 42 44 46 48 50 52 54 56 58 60 62 64 66 68 70 72 74 76 78 80 82 84 86 88 90 92 94 96 98 100 102 104 106 108 110 112 114 116 118 120 122 124 126 128 130 132 134 136 138 140 142 144 146 148 150 152 154 156 158 160 162 164 166 168 170 172 174 176 178 180 182 184 186 188 190 192 194 196 198 200 202 204 206 208 210 212 214 216 218 220 222 224 226 228 230 232 234 236 238 240 242 244 246 248 250 252 254 256 258 260 262 264 266 268 270 272 274 276 278 280 282 284 286 288 290 292 294 296 298 300 302 304 306 308 310 312 314 316 318 320 322 324 326 328 330 332 334 336 338 340 342 344 346 348 350 352 354 356 358 360 362 364 366 368 370 372 374 376 378 380 382 384 386 388 390 392 394 396 398 400 402 404 406 408 410 412 414 416 418 420 422 424 426 428 430 432 434 436 438 440 442 444 446 448 450 452 454 456 458 460 462 464 466 468 470 472 474 476 478 480 482 484 486 488 490 492 494 496 498 500 502 504 
</DataArray>
<DataArray type="Int8" Name="types" format="ascii">
3 3 3 3 3 3 3 3 3 3 3 3 3 3 3 3 3 3 3 3 3 3 3 3 3 3 3 3 3 3 3 3 3 3 3 3 3 3 3 3 3 3 3 3 3 3 3 3 3 3 3 3 3 3 3 3 3 3 3 3 3 3 3 3 3 3 3 3 3 3 3 3 3 3 3 3 3 3 3 3 3 3 3 3 3 3 3 3 3 3 3 3 3 3 3 3 3 3 3 3 3 3 3 3 3 3 3 3 3 3 3 3 3 3 3 3 3 3 3 3 3 3 3 3 3 3 3 3 3 3 3 3 3 3 3 3 3 3 3 3 3 3 3 3 3 3 3 3 3 3 3 3 3 3 3 3 3 3 3 3 3 3 3 3 3 3 3 3 3 3 3 3 3 3 3 3 3 3 3 3 3 3 3 3 3 3 3 3 3 3 3 3 3 3 3 3 3 3 3 3 3 3 3 3 3 3 3 3 3 3 3 3 3 3 3 3 3 3 3 3 3 3 3 3 3 3 3 3 3 3 3 3 3 3 3 3 3 3 3 3 3 3 3 3 3 3 3 3 3 3 3 3 
</DataArray>
</Cells>
</Piece>
</UnstructuredGrid>
</VTKFile>
