<VTKFile type="UnstructuredGrid" version="0.1" byte_order="LittleEndian">
<UnstructuredGrid>
<Piece NumberOfPoints="11465" NumberOfCells="22404">
<PointData Scalars="abs_term_u1">
<DataArray type="Float64" Name="real_part_term_u1" format="ascii">
-1.52824
-1.40752
-1.08646
0.720364
1.57484
0.892757
0.0274031
0.973887
0.078577
0.135954
0.786611
0.626299
-0.807753
-0.551392
-0.668724
-0.573012
0.626496
0.63863
1.33962
1.34557
0.683595
0.464915
-0.430781
-0.567408
-0.629487
-0.339499
0.114352
1.39579
1.79012
1.83375
0.164188
0.777474
0.913602
-0.170305
-0.466573
-0.0945816
0.772272
0.93677
0.994296
0.495033
1.26409
-0.118007
0.554666
1.75084
1.92446
2.20048
0.176283
0.772575
0.321938
-0.713934
-0.2641
-0.447881
0.554549
0.24309
0.825776
-0.626994
-0.258819
-0.320583
0.465456
1.47004
1.49075
1.67986
0.318405
-0.0488787
-0.101492
0.274159
-0.394742
1.37493
0.856292
1.21712
1.33448
0.97154
0.204611
-0.104221
0.30681
-0.265885
-0.011785
0.483763
-0.745244
0.572299
-0.517118
-0.0991706
0.0542373
-0.117272
-0.181108
-0.415011
0.36409
-0.205668
0.78153
0.553935
-0.371622
0.374822
-0.15856
-0.736595
0.0322246
-0.0876848
-0.628512
0.037796
-0.879212
0.582475
1.21901
1.07866
1.07089
0.926122
-0.727396
-1.16583
-0.754678
1.01433
-0.0692821
-0.119434
-1.96703
-0.805081
-1.0502
0.139614
0.893627
1.34344
1.77824
1.64457
-0.974315
-0.426313
0.878452
-1.16541
-0.930503
-0.83415
-0.740849
-0.528291
-0.356384
1.37666
-0.460507
-0.30589
-0.421213
0.931057
1.52022
1.63691
0.560974
0.751502
-0.297231
0.27394
-0.620304
0.366951
-0.255183
0.268341
0.575428
0.230961
-1.34034
-1.70645
-1.33364
1.33533
1.01099
0.812358
0.304152
0.174998
0.479773
0.732739
-0.190932
0.686625
0.186939
-0.509588
0.289352
-0.392861
1.14089
1.28882
0.60201
0.293007
0.566085
-0.145674
-0.43482
-0.679973
0.519517
2.41585
0.402325
0.283767
-0.722612
-0.537401
-0.518579
-0.545766
-0.704854
0.46293
-0.341214
-0.0271267
0.301762
0.466434
-1.20448
-1.73253
-1.50788
-0.19697
0.545343
-0.36435
-0.641879
-0.386601
0.272486
0.396532
0.557373
0.879037
1.76412
-0.0787918
-0.0897286
-0.594464
0.998917
0.550229
-0.0807812
0.189097
0.662916
-1.55581
-0.973168
-1.21923
1.25646
0.644553
0.574483
-1.16141
0.724022
1.42916
0.790246
0.337482
0.847298
0.138231
-0.707985
0.830588
0.227731
-0.194665
-0.060972
0.30814
0.577381
0.045543
0.471924
0.595028
-0.832838
-0.0962534
-1.52282
-0.891606
-0.868076
-1.05368
-1.20006
-0.971224
-1.00297
0.147888
0.176583
-0.76614
-1.22695
-0.53792
0.995631
-1.59456
-0.951775
-0.980689
0.78841
1.17451
0.892844
0.825364
0.396989
-0.0596001
-0.0219378
0.645481
0.490379
-0.274993
1.47176
0.190221
1.24379
-1.23316
-0.949233
-1.18274
-0.348271
-1.02298
-0.911812
-1.17726
0.579672
0.934271
-0.566159
-2.0669
-2.40469
-2.0755
1.46493
0.332136
1.32992
1.4019
-1.89771
0.241862
-0.330713
-0.159223
-0.183994
0.680335
0.855557
-0.340826
0.629577
-0.217086
-0.582777
0.0874672
0.108248
0.69621
0.16221
1.25184
1.21358
-0.476322
0.919354
-0.424437
0.460428
-1.57686
-1.22537
-1.07061
-0.389015
-1.0611
0.082958
0.809443
0.974192
1.49308
0.301503
0.209308
-1.86141
-2.0236
-0.0264571
-1.02183
0.0730896
-0.735955
-0.0860524
0.0755754
-0.713325
-0.281232
-0.814578
-1.3825
-1.2383
0.633168
0.620499
1.31849
-0.39705
-0.11102
-0.519133
0.327594
0.638748
-0.159848
0.131727
-0.43508
-0.814225
0.580584
0.845765
0.995817
1.77
1.23986
0.950048
0.154259
0.0944466
0.937308
0.758335
0.896429
0.757971
1.08713
0.669617
0.971609
1.56615
-0.125903
-0.754907
-0.54446
-0.246734
-0.811726
-0.357343
-0.437663
-0.500833
1.02656
-1.0902
-0.863964
0.922839
-0.399975
-0.166333
0.363032
0.402505
0.0883429
-1.2127
-1.32037
-0.987317
0.157385
0.254099
0.0724092
0.940389
0.443993
0.576523
-0.868759
-0.995888
-1.09262
0.180587
1.5683
2.0167
0.218893
-0.101399
1.62586
1.24106
0.980501
0.140065
0.495083
1.12688
0.508754
0.644371
-0.531702
0.49085
0.3518
1.18398
0.978071
0.0814159
1.0679
0.492165
-0.148892
0.274294
-0.306805
-0.395741
-0.187413
1.01008
0.916036
0.582265
1.0767
0.289187
1.47763
1.91855
0.372494
-0.703546
-1.06191
-0.888896
-0.513818
0.152975
-0.456705
-0.183471
-0.85772
0.30869
1.29896
-0.186188
-1.16838
-0.00771888
-0.781743
-1.54866
-2.20324
-1.75292
-0.0101332
-0.333261
-0.951358
-0.159083
0.99035
-0.682968
0.570224
-1.82354
-1.70696
-1.79113
0.129907
-0.738914
1.45577
0.475537
-0.318898
0.613426
0.407697
0.43031
-0.244277
-1.42006
0.200853
0.774094
0.970073
-0.0276451
1.68883
-0.227672
0.74952
-0.665269
0.41448
1.13941
-0.549773
0.123227
-0.61292
0.899991
-0.580589
0.116796
0.634064
-1.55325
-1.0103
-1.00115
-1.49253
0.0959982
0.370902
0.310464
0.438924
1.32053
0.564011
-0.270526
0.845436
-0.370953
-0.521065
0.262285
0.0709734
1.21399
1.39475
-0.130205
-0.0828221
-0.740882
0.595201
1.38644
-0.0359095
-1.18205
0.313142
1.10577
0.638272
-0.582835
-1.24254
-0.65739
-0.699017
-0.970012
-1.08858
1.20212
1.82669
1.59905
1.41608
-0.43491
0.457672
0.146758
-0.746922
0.10332
0.322202
0.998268
-1.09787
-0.951144
-0.848317
-1.72823
-0.559849
0.58446
0.576117
-0.905535
0.69778
-0.506664
0.705269
0.546357
0.954313
1.41522
1.20374
1.24341
0.875556
-0.0118584
-0.23475
0.583646
-1.94552
-1.87489
-1.71563
-0.294099
-0.384488
-0.688067
0.567297
-0.260608
-0.300919
0.100714
0.429992
-1.13742
-0.296684
-0.989676
1.32657
0.931303
1.11591
-0.70387
0.743868
0.0856934
0.547342
-0.707987
-1.03289
0.15292
0.372076
-0.246161
0.113592
-0.911299
0.964946
0.336285
0.14348
0.888121
0.658689
0.395155
-0.225779
0.266056
1.00717
0.457389
0.743524
-0.919894
0.144703
-0.790372
-0.398036
1.19171
-0.0758852
0.581786
-0.44905
-0.814253
1.56059
0.826297
1.21477
0.708082
0.580212
0.787931
-0.724242
0.943108
-0.996101
-0.560222
1.20629
-0.0258339
-0.752058
-0.555738
-1.14371
0.230879
1.21333
1.14588
-0.0855647
-0.95572
0.489992
0.00100032
0.478471
0.437871
1.35779
1.29857
0.71643
0.692037
-0.271445
0.227745
-0.529414
0.246126
0.862004
0.609269
0.105265
0.938722
-0.0352909
-0.674697
-0.618821
0.996728
1.3854
1.60025
-0.104007
0.0136531
0.536834
0.557278
0.274132
-0.069881
1.17227
0.96566
0.349309
0.850625
0.463355
0.0136022
0.794162
-0.0193229
0.333539
0.204636
0.968007
-0.943413
-0.914399
0.373935
1.07928
0.790844
0.159609
-0.303064
0.342747
1.06372
-1.56177
-0.890204
-0.879135
1.04597
0.813444
1.25935
-0.600151
-1.46996
-0.957093
-1.22381
1.03447
0.405096
0.991057
0.700085
0.979393
0.907813
-1.97582
-2.30807
-1.97865
0.551269
0.531722
0.828428
-0.497882
-2.02434
-1.62809
-2.05787
-0.941757
0.21565
1.0666
0.473239
1.03578
0.124066
-0.968685
-0.515916
-1.00574
-0.305543
0.796466
0.432786
-0.745979
0.768285
0.369459
-0.10958
-0.849791
-0.256529
-0.512906
0.0158859
-1.57873
-1.14725
0.464794
-0.539068
0.214306
-1.26132
-0.526459
-1.33568
-0.514665
-0.658153
-1.22892
0.356434
-0.291953
0.0428784
-0.495243
0.0466584
-1.51826
-0.718681
0.626481
0.510939
-0.557577
-0.848382
-1.20015
0.973921
0.811911
0.732725
1.02363
-1.41464
-0.955213
-0.725482
1.1375
1.5525
1.03644
1.53654
-0.300334
-0.787652
-0.587367
-0.0640903
0.0201265
-0.635011
-0.420383
-0.44227
0.305509
0.197652
-1.54894
-0.360876
-1.32082
-0.10929
0.378997
0.501108
0.743875
0.791115
0.3554
-0.979912
-0.464591
-0.199186
0.150621
0.623446
-0.986489
-0.672638
-1.00477
-0.461395
-1.06499
-0.920998
0.0260964
1.25104
0.956093
1.17971
0.874166
1.38118
1.39718
0.0271448
-1.40015
-0.122525
1.97363
1.60478
-1.95335
-1.59023
-1.90535
1.37862
-1.04906
-1.00547
0.0826713
0.758085
0.0133927
0.813194
1.44854
1.00098
0.202976
0.0790788
-1.37322
1.02712
0.487879
1.36547
-0.358827
0.693607
-0.289424
0.404752
0.767141
0.804775
1.52234
-1.425
-1.83386
-1.72176
-0.158222
0.406479
-0.571331
-0.0839041
-1.10783
-0.755166
1.59412
-1.58042
-0.104462
1.46925
1.95795
1.1324
1.3944
0.913804
1.10775
1.74126
0.647974
0.93487
0.467654
0.703273
0.427648
-0.26375
0.0345653
1.49047
0.752237
1.04765
1.17573
-0.240857
0.6867
0.672441
0.850572
0.531852
-0.355889
0.47558
-0.699543
0.517153
-1.08588
-0.741134
-0.73266
-1.97262
-1.7431
-2.11698
0.53052
-0.167337
-0.245709
-1.28885
-0.195857
-0.626076
-0.04461
-0.527654
-0.116098
-1.76838
0.559455
0.46132
-0.180887
-0.385363
-1.14607
-2.1647
-1.98863
0.770395
-0.688087
-1.11586
-0.453869
-0.707807
-1.40306
-0.171956
-0.375529
-1.52177
-1.82192
-1.03911
-0.412718
-0.64054
-0.71381
0.482768
0.977254
0.549059
-0.535523
0.337636
-0.28331
-0.456404
0.239061
-1.00783
-1.21808
-1.26401
-0.0228211
-0.0563482
-0.22853
-0.868402
1.87937
1.18568
-0.221915
-1.04477
-0.0701022
-1.5741
0.234789
-0.303301
0.369937
0.740457
1.27941
0.573037
0.870373
1.47534
1.30605
1.19771
-1.16906
1.16125
1.29487
0.866459
1.65492
1.03354
1.96306
-1.56596
-1.23385
-1.45042
-0.345587
0.0123379
1.08873
-0.520699
-0.378813
-1.07344
0.403755
0.354121
-0.027899
0.419261
1.23766
1.16781
0.742401
-0.4748
-1.38871
-0.0521527
-0.315954
-0.958897
-1.12228
0.120337
-1.69731
0.958382
1.24376
-0.309495
-0.757735
-0.91278
1.20846
1.34007
0.631667
0.908659
0.322062
-0.0890526
1.40455
-1.16554
-0.763574
-0.341025
1.68648
-2.00097
-1.69923
-1.91258
-0.302537
-1.84515
-0.800206
-0.58853
-1.52817
-0.927123
-1.05945
-1.27297
-0.92886
-1.52434
0.296283
-0.200385
-0.621482
-0.518675
-0.395635
-0.23351
0.0145753
-0.620492
-0.675564
-0.847053
0.221201
0.0414783
1.25649
-0.253452
0.218499
0.36998
-0.537791
0.963576
0.225976
-0.518079
-0.147595
-1.31079
-0.750819
-0.682332
0.612451
1.51307
0.841405
0.34161
-0.0373463
0.477241
-0.216574
-0.57561
-0.868114
0.672886
0.738635
-0.267146
-1.1444
-1.26264
-1.46009
1.02128
0.173536
0.799852
-0.950203
-0.616166
-1.25096
0.707195
0.656117
0.763924
-0.77952
-1.07828
-0.836974
0.22099
-0.731584
-0.689328
-0.242045
-0.881974
-0.198578
1.47579
0.959795
-0.782818
1.50487
0.897252
-0.307801
0.591047
0.629241
0.667423
0.2445
0.330515
-0.818107
-0.944283
-0.803128
-0.369381
0.251328
-2.32216
-1.48901
-0.688839
-1.12329
-0.992643
-0.672729
1.15744
0.892496
0.737673
-0.89543
0.590846
0.0773332
0.635459
1.05907
0.337118
-0.234471
-0.110658
-0.0694309
0.571744
-1.06979
0.165201
0.326176
-0.416951
-0.362805
-0.0956422
-0.207428
-0.500741
-0.0971494
-0.6075
0.713168
1.15263
0.0683872
0.487177
-1.45403
0.737458
0.535751
-0.984943
-1.12656
-0.519512
1.10598
0.891144
0.113496
0.57512
1.36894
1.35414
1.34609
-0.815216
-0.971363
-1.10703
1.08183
1.31826
-0.273484
0.80111
0.430365
-1.27023
-1.08213
0.472998
0.663581
0.492814
0.967113
-0.893375
-0.64123
-0.460231
-0.737146
0.956949
0.545402
0.929562
-1.70357
-0.812938
-1.34491
-0.337124
-1.35809
0.697033
0.29988
1.03577
1.14778
0.484132
0.340065
-0.511378
-0.575555
-0.201939
-0.583617
-0.0902461
0.643486
-1.666
-1.12442
-1.04749
-0.980642
-0.212323
0.575183
-0.473749
0.5405
0.87797
-0.981031
-0.549181
-0.432161
-0.566775
-0.44006
-0.152629
0.272683
-1.92865
-0.578332
0.448535
0.382655
0.84149
-1.85221
-1.08247
-2.28645
0.527143
0.835324
0.768799
0.0698977
0.677606
-1.49163
1.32438
-0.890568
-1.22744
-0.7525
-0.703084
0.299061
-0.175478
0.556869
-0.731884
-0.197477
-0.113551
-0.0283852
0.966663
1.2636
0.454824
0.0527299
-0.264571
0.702608
1.83531
1.02437
1.67425
-0.962912
-0.339481
-0.805595
1.17302
-1.34893
0.499588
-1.17449
-1.20885
-1.52288
0.0384927
-0.541154
-0.287069
-1.05527
-0.43686
-0.753795
-0.719628
1.15288
0.951664
1.13161
-1.90398
-1.69085
-1.59666
-0.663809
0.770559
0.749837
1.24894
0.545954
-0.584566
0.878245
-0.653737
-0.81594
2.19253
-1.10213
-0.895004
-1.62478
1.639
1.78988
1.42507
-0.757063
-0.536103
0.137939
1.23349
-0.189995
0.877418
0.374301
1.13283
1.73463
0.710179
0.95227
1.05444
1.14837
0.604935
-0.697898
-0.537673
1.26414
-0.0599523
0.655167
0.671747
0.713194
0.365017
-1.11175
-0.901955
-0.646517
-1.51258
0.0627787
-0.177291
0.238177
-0.813772
0.384738
-1.58855
0.87232
0.409407
0.816578
-0.274758
-1.97082
-1.74233
-2.5174
0.222745
-1.3456
-0.540067
-0.715493
-1.16252
0.0400347
-0.19936
1.44548
0.223735
-0.00869032
-1.60003
-0.174632
-0.184819
0.2573
1.14094
0.541257
0.684164
0.532141
-0.62781
-1.26586
-0.920334
-1.32997
-0.840081
-0.71402
1.14029
-0.52138
-1.31876
0.969936
1.43009
0.60535
1.14817
-0.557159
-1.1579
0.942648
1.07739
0.818997
-1.63376
1.29382
0.036011
-1.3685
-0.875363
-1.62391
0.238945
0.00816182
1.35403
1.84406
1.4952
-1.12276
-1.23364
-0.591076
0.342645
-0.189462
-0.887215
-0.525849
-0.985238
-0.75675
-0.71696
0.697219
-0.73445
-0.0169653
0.0839054
0.635003
0.211787
0.311688
0.578179
0.871587
1.08027
-0.362222
1.16623
-0.682681
1.10619
1.37093
-0.785163
-0.235364
0.210677
0.481145
0.955959
-0.542786
-0.762435
-0.595049
0.273183
1.27363
0.634853
0.85721
0.538363
-0.971527
0.155772
-0.474489
-0.0479596
-1.1274
-0.148084
-0.190401
-0.460435
0.970383
0.42484
-0.7225
0.507828
1.14291
1.25115
-0.101172
0.38504
0.829151
1.10823
1.11589
0.358341
0.74327
-0.68193
0.491611
-0.74064
2.18238
2.16116
-1.18067
-0.218771
0.987291
-1.28081
-0.450082
-1.04533
-0.826942
-0.103071
-1.17446
-0.184865
-0.17625
0.352372
-0.945568
-1.19299
-1.40578
-1.23438
-0.202248
-0.262383
1.20027
0.970613
1.24062
-0.444425
-0.271751
1.37927
0.0932073
-2.12985
-0.714489
0.188058
-0.0749136
0.500578
0.730434
-0.101474
0.419362
-0.0452231
0.0088549
0.99294
0.542882
0.744886
1.10687
0.367591
0.462442
0.901419
1.13685
1.27838
0.591262
0.852377
-0.157746
0.887028
0.206064
-0.0960621
0.739411
0.150199
0.618254
0.890679
-1.03298
0.551129
0.359078
-0.577021
-0.727094
-0.690009
-1.01921
-1.1424
0.432283
0.912326
-0.0350525
-0.550539
-1.22512
-0.4595
-0.468992
0.381449
-0.148155
-1.47373
-1.17434
-0.256187
-0.668006
-0.286488
0.261305
0.163474
0.601392
-2.36995
-2.7185
-2.25755
-0.805837
-0.159613
-0.485939
-0.52088
-0.271422
0.833424
0.316704
-0.949962
-1.76732
-0.815959
0.147556
0.835938
0.984301
0.292868
0.827367
0.124767
-0.643438
-0.429913
-1.58463
-1.45657
-1.3047
1.31391
0.0161399
-0.98106
-1.70163
0.320329
-0.511284
-0.146968
0.679357
-0.625054
0.200894
0.564197
0.714498
-1.53863
0.19585
-0.392407
-1.07932
0.0619561
1.18012
-0.160486
-0.680169
-1.07091
-1.86766
-0.234011
1.75452
0.972324
0.832469
-1.2494
-1.2834
-1.5198
-0.341953
-0.62026
-0.721552
-0.524119
0.950245
-0.35605
0.800067
0.249081
-0.840101
-1.52003
-2.05073
-1.6029
-1.1094
-1.0261
1.32135
-0.916359
0.448488
0.889702
-1.37705
-1.94701
-0.358802
-0.969701
-1.34024
-0.8948
-0.646628
0.66035
0.226231
-1.10673
0.062608
0.601085
0.874069
0.0354375
0.111931
-0.804336
-1.16068
-1.19193
-0.995689
-0.258173
0.609654
0.394152
0.138778
-0.363245
1.37392
0.483341
-0.834518
-0.298051
-1.08445
0.403968
-0.68987
0.214694
-0.557355
-0.43977
-0.978872
1.13501
1.2488
-0.247798
-0.79676
-1.81572
0.298509
-0.721875
-0.438812
-0.603821
1.23442
0.619193
-0.0348471
0.404335
0.242883
-0.292934
0.457493
-0.567618
-0.595743
-0.394526
-0.00451896
-0.488565
-0.69535
-0.286782
0.922887
-0.207989
-0.0339083
-0.80466
0.718591
0.555051
0.541592
0.649152
-1.29315
-0.212224
-0.50405
-0.0651846
-0.989436
-1.78166
1.33281
1.17752
0.292292
1.04667
1.13629
-1.74379
-1.24626
-1.44403
-0.916375
-1.20605
1.62058
1.75005
1.60941
0.332805
1.35592
0.692368
0.615192
0.533885
0.170957
-0.815172
1.22849
0.516706
0.657984
0.104136
0.304841
0.143881
1.06312
1.14392
0.354274
1.15313
-0.131871
-0.501662
0.170367
0.275227
1.08467
0.609872
-0.42339
-0.430225
-0.0253284
-0.00674549
1.69456
0.523893
0.847627
0.273724
-0.039331
0.220059
0.545984
0.248765
-1.74737
0.62136
1.40613
1.34742
1.4372
0.204487
-0.843625
-1.02061
-0.736416
-1.46121
-0.318491
-1.01975
1.67771
-1.09766
-0.638808
-0.452085
1.6036
-0.104677
-0.963348
-1.33874
0.857346
-0.886069
1.39787
1.45683
1.03758
1.40721
1.38327
-0.278514
0.544692
0.818489
-0.363633
0.660046
-0.439778
-0.762528
1.31789
-1.08062
-0.316071
-0.321155
-0.543002
0.725956
0.584169
0.147676
-1.07196
-0.558931
-0.0214993
0.191914
0.910529
-0.534006
0.211597
0.283162
-0.384264
-1.46149
-1.12314
1.06519
0.367016
-0.763801
-0.847166
-1.12135
-1.08915
-0.235873
0.0812813
1.24112
-1.09843
0.24672
-0.563098
0.696835
2.22815
1.40529
2.05199
-1.07877
-0.0326484
0.58778
0.195934
0.169391
1.32735
0.738907
1.20627
0.761149
0.438764
0.553062
0.60164
1.08132
0.409802
0.519022
0.878224
-0.150543
1.58702
-0.788044
0.254696
0.290637
-0.0802074
-0.678279
-1.7206
-1.44002
0.370805
0.344189
-0.601577
0.653362
0.8517
-0.00817727
-1.29101
-1.44544
0.170205
-0.956133
-0.784862
-1.02412
-1.85926
-1.58401
0.650174
1.27573
1.37025
-0.857258
1.13875
-0.158734
0.437125
1.21261
-0.494893
-1.24344
1.05205
0.344293
0.770854
0.547757
0.323002
-0.401903
0.807522
-0.83598
-1.86393
0.155112
-0.507494
0.901635
0.639249
1.35411
-1.10634
1.39788
0.957205
1.0548
-0.886959
-0.57484
0.934937
1.05807
0.965783
0.891832
-0.874587
-0.522247
-0.208939
-0.283935
-0.739622
-0.49728
1.23682
1.37413
0.806132
0.10349
1.03006
0.877226
1.41038
-0.269026
1.38489
-1.83882
-0.38404
-0.755146
0.834194
0.504459
0.587144
0.72956
0.569911
1.11543
0.907573
-0.896605
0.916512
1.29845
-1.2379
-1.341
-1.06701
1.16965
0.0191743
0.423979
1.96992
1.35753
1.71639
0.139921
1.30515
0.575965
1.3843
0.400406
1.13282
0.47202
1.51519
1.56688
1.44375
-0.0995539
-1.5724
1.16998
0.45962
-0.289081
0.553374
1.36591
1.10892
1.14139
0.729485
-0.863521
0.0054035
0.157573
-0.50213
-0.455692
-1.50618
0.123754
-0.00081012
-1.33562
0.107335
0.630217
0.167793
1.9061
1.84938
1.41957
-1.41186
-0.835284
-0.738272
0.310081
-1.06043
1.15911
1.70541
-0.0148079
-0.358832
-1.92096
-0.846353
-1.24715
0.614987
1.20716
-1.60047
-1.65959
-0.667555
-1.05174
-1.16297
0.298917
-0.665269
0.268447
0.0921811
0.825628
1.15585
0.951542
0.0524916
0.913488
1.06014
-0.905563
-1.64046
-1.96028
-1.75761
-1.15962
-1.7423
0.339368
0.254165
0.575755
1.00085
0.851716
0.333692
1.53122
2.0335
1.20441
-1.55097
-1.53889
0.58536
0.57807
-0.0312043
0.0448022
-0.205777
0.687988
0.120649
0.395828
-1.77738
-1.72605
-1.85742
1.09443
1.01456
-1.7228
-1.13966
-1.33319
-1.1137
-0.147749
0.194234
0.787886
0.623984
1.05175
1.61129
1.46987
0.0434164
1.28725
1.16292
0.39461
-1.03732
0.332143
0.492486
1.46616
-0.844811
-0.582119
-0.0479615
-0.511429
-0.798686
-0.324103
-1.24045
0.831828
0.709409
0.397829
0.872319
-0.217916
0.612679
-0.791026
0.595614
1.06637
0.658871
2.48355
0.131893
-0.738589
-0.297229
-0.810855
0.631622
-0.803183
0.275262
0.778035
-0.181646
-0.059147
-0.592746
0.0859676
-0.355578
0.250135
0.939107
1.4919
0.131945
0.177069
0.968271
0.519368
-0.365815
0.869364
1.74703
1.01951
1.16032
-0.546325
0.688797
0.212777
1.14495
1.55533
1.66222
1.27556
-1.06659
-1.17209
-0.751213
-0.189202
-1.50992
-1.70741
-1.24108
-0.611554
-0.264572
0.98557
0.366961
1.33663
0.851727
0.543188
0.569356
0.47705
-0.800089
1.48636
1.26789
1.06997
-0.0390285
-0.00950222
-1.67211
-0.559795
-0.708023
0.695681
0.812861
0.029608
-0.173099
-0.780289
-1.33583
-0.281136
-0.247665
0.637512
-2.0608
0.153018
0.248386
1.17204
0.78154
-0.512943
-0.120569
-0.266237
-0.435534
-0.739142
0.485648
0.267324
0.00922641
-1.28915
-0.140062
-0.461508
-1.462
0.534734
1.18986
-1.80231
-0.15377
1.08454
0.941306
0.699798
-0.44207
0.297877
-2.66006
-2.76621
-2.46434
0.640224
0.189058
1.33605
0.745845
-0.12837
0.508803
0.187913
0.397842
0.60951
0.449993
-0.123653
-1.20753
-0.410749
0.379801
0.14195
-1.1119
-1.22826
-0.413683
-0.745411
-1.55016
1.45502
-0.929672
-0.877686
-0.229807
-0.437548
0.894497
-2.08964
0.0957169
0.303273
-0.496249
0.380589
0.833171
0.656109
-1.15952
-1.00579
-1.03387
-0.821395
-0.657655
1.06028
1.01425
0.894979
1.02197
1.37325
1.47826
1.10802
-1.78177
0.084318
-1.23679
-0.477914
-0.751462
1.14466
1.24024
1.13424
0.759636
1.28062
0.658704
-1.59981
-0.390674
-0.570547
0.58067
0.612803
-1.02518
0.760338
-0.709831
1.00776
1.16135
0.735575
0.361954
0.357429
0.545978
-0.867758
-0.152027
1.26041
1.65853
1.08679
0.0625128
-0.999213
-1.05291
-0.439864
-0.241585
-0.628951
1.61054
1.02836
1.24107
0.915676
-1.27229
-1.59709
-0.0856211
-0.112799
-1.43764
-1.39733
-1.35083
-1.33915
-1.6367
-1.78598
-0.112869
0.794709
0.771012
-0.0181069
0.830547
-1.25566
-1.10771
0.217853
0.470682
-0.226111
-0.174483
0.555776
1.3199
1.46412
0.939105
0.00345166
-0.435044
-0.974698
1.09126
-0.714276
0.931867
0.194934
0.0457278
0.260398
0.545092
1.04259
0.122662
0.636118
0.387819
-0.200277
0.115016
-0.41305
-0.15519
-0.0353337
0.621081
-0.897033
-1.05367
-0.711873
-1.29314
0.0130717
0.0510492
-0.664813
0.0949803
-0.437499
-0.165514
0.802775
1.43295
-0.665315
-0.459729
1.39049
0.597622
-1.33207
-1.75697
-1.13977
0.474718
1.12162
0.231422
-1.17022
-0.0480519
-0.356872
1.34268
-0.169601
0.0532451
0.401451
-0.699943
-0.744502
0.435755
-0.668366
0.222533
-1.47523
-1.6429
-1.44609
1.48187
0.706477
-0.478056
0.894624
-0.739062
-0.674587
-0.652224
0.228467
-0.751776
-0.612759
-0.877077
-0.432928
0.696272
-0.586804
-1.64919
-1.27863
-1.51861
1.01218
0.0743563
0.544917
0.0948623
-0.460133
0.0603179
1.95297
2.20912
1.36023
-0.353388
-1.45986
-1.1752
-0.888078
-1.0475
-0.395179
0.289629
0.840742
0.426984
0.0273427
0.889487
0.387872
0.186104
-1.46135
-1.09306
-1.43017
1.0351
-1.1866
0.927496
0.450117
0.767778
0.484373
0.507735
0.345875
0.0141897
0.45605
-0.338071
-0.0975588
0.134266
1.17515
-0.990086
0.0538697
-0.949319
-0.392743
-0.720591
1.18553
-0.975029
-0.46683
-0.571141
-0.810974
-0.117665
-0.448353
-0.0631799
0.949875
1.06694
1.19898
1.31434
1.1001
1.73937
2.0891
1.70972
0.341918
-0.00674014
0.669926
1.28094
0.797192
1.83655
0.14291
-0.190094
-0.779747
0.911029
0.521063
0.135814
-0.583373
-0.497784
1.39379
1.31585
-0.449719
0.826065
-0.221088
0.179213
-0.313829
0.61187
-0.476918
-0.437818
-0.651768
-0.909029
0.923241
1.32451
0.550278
0.335118
-1.00925
-0.620373
-0.844034
-1.24011
-1.3966
-0.785252
-0.350549
-0.449287
-0.335968
-0.760399
-0.96646
-0.748985
-0.343545
1.34726
-0.685212
-0.186922
0.453924
-0.677704
-0.00465059
-0.967068
-1.57302
2.22111
1.85811
1.43648
0.338065
0.970092
0.704679
0.645896
-0.778343
-0.451823
1.72018
1.22167
-2.57593
-2.23403
-1.7493
-0.335576
0.949925
-0.308746
0.779582
0.65893
1.04365
0.140273
-0.36443
0.174196
1.53136
0.300995
-0.0327385
-0.64271
-0.584264
0.129549
-0.0272356
1.26119
-0.430748
-1.64478
0.715259
0.13703
-1.30414
-1.0689
-0.712065
-0.894261
-0.324691
0.609323
-0.402931
-0.44633
-0.618492
0.768317
-0.266597
0.480747
1.25371
0.370087
0.846488
0.863476
-0.764864
-0.313416
-0.571984
-0.677634
0.546312
0.293752
0.642875
0.774855
-0.413861
1.34001
0.582616
0.794418
1.29947
1.39494
0.378695
-0.261287
1.11703
1.61712
1.21023
0.363291
0.517013
0.469504
-1.09681
-1.60627
-1.65412
-1.16254
-1.52496
-1.33171
1.33886
0.0506081
-0.354264
0.168805
-0.717667
-0.0179927
-0.0730355
-0.731891
1.30046
-0.51387
0.0511831
0.00839699
0.893546
-0.0459977
-0.603934
0.0662225
0.773707
0.616841
0.128777
0.454243
-0.641923
-0.196201
-0.0949184
-1.41414
0.0751425
-0.228891
-1.11147
1.83541
1.56622
-1.22999
-1.486
-0.636778
-0.609693
-0.695383
-1.21379
0.116871
-0.728135
-1.445
-0.04291
-1.07878
-0.939297
-0.742245
0.370366
-0.111125
-0.0912259
-0.0137565
0.74696
0.233723
-1.41105
-0.98136
-0.586327
-0.457236
0.374859
0.530011
0.478391
0.700045
-0.429682
-0.386993
-0.414127
-0.232753
-0.414361
-0.343457
0.732994
0.21365
0.48775
-0.708759
-0.316901
1.02829
0.905196
0.659899
-0.169588
0.106937
0.373786
0.471861
0.507881
0.933031
0.565014
-1.44775
-1.20256
-0.289004
-0.118285
0.572288
-1.52508
-1.14185
-1.12891
-1.54995
-1.4761
-1.13761
-0.0905551
-0.877175
-0.154133
0.643597
1.4473
1.36297
-1.23283
-1.2032
-1.23244
-0.753994
-0.572798
-0.795634
-0.776811
1.35851
-0.0913773
0.82624
-0.664655
-0.272345
-1.11244
-0.326665
1.38443
0.579593
-0.193246
0.144474
-0.264128
0.0577793
-1.04919
-1.10855
-1.03628
-1.43923
1.05801
-0.38231
-0.381011
-0.811792
0.748477
-1.66498
-0.579624
1.43332
0.453265
-0.333959
0.360724
0.465666
-0.176157
-0.272106
0.173168
-0.139894
-0.332234
-1.0858
-0.699124
-0.482502
-0.232679
-0.623489
0.395191
0.154712
0.753938
0.316832
-0.369051
0.0349229
0.525471
0.307468
-0.182048
-0.19926
0.237592
1.66721
0.992925
1.61604
1.00983
1.54497
0.821095
0.752882
0.979478
0.0162722
-1.09861
0.0976209
-0.624307
1.0588
1.72767
0.590694
-0.374758
-0.740795
-0.874624
-0.761802
-0.763117
-0.942282
-1.29233
-0.64777
-0.664436
0.271289
0.23122
0.917363
0.0281808
0.0603141
-0.655157
1.10956
1.27373
0.338002
-0.114585
-0.152908
-0.460175
0.11393
-2.02146
-1.53777
-1.80994
1.25524
0.583357
-0.148388
-0.0210631
0.0214583
0.324133
-1.07538
0.0927639
-0.705218
1.22
0.938581
0.784702
-0.194983
-0.0819925
-1.36286
-1.80798
0.465407
-0.101082
-1.19699
1.38341
0.791222
1.49966
-0.00333944
1.52461
-1.67811
-1.14783
0.909728
0.982057
1.44111
-1.10974
-1.75776
-1.48046
-1.16688
-1.62287
-1.67212
-1.4985
0.737919
0.8525
0.627394
1.1482
0.842374
0.710204
0.225621
0.956123
1.1736
0.318068
0.636707
-1.1295
-1.35418
-1.33613
0.0272865
0.137026
0.894356
0.231614
0.836838
0.7001
0.689063
-0.0678527
0.751195
-2.13139
-0.0249205
-0.261051
-0.728832
1.03895
-0.909536
-1.16993
-1.23586
-0.975457
-0.609316
-0.704813
-0.666083
0.190242
-0.656256
0.153829
0.620266
1.46367
1.73166
1.32776
0.870078
0.465022
-0.125194
-0.880209
0.487275
-0.884979
-1.10402
0.160626
1.5125
-1.19915
-0.93241
-0.305968
0.545247
0.645116
-0.754307
-1.10988
-0.977305
-0.15377
0.257046
-0.270167
0.473513
0.199072
-0.211669
0.829636
0.197575
0.298846
-0.732296
-0.694619
-0.654858
-1.5586
-0.479502
-0.61455
0.614778
1.11606
0.839843
0.313593
0.609841
0.0513616
-0.377861
-0.211482
0.645802
-1.2476
-0.403345
0.689678
0.7666
0.746693
0.632931
1.43566
1.90049
-0.339636
0.975468
0.110343
0.450171
-0.10685
0.325503
0.545302
-0.632659
-1.1659
-1.47871
-0.581652
0.0992846
1.39185
0.641691
-0.353349
0.286997
0.589742
0.597808
1.12883
-0.451124
-1.05369
0.0196623
0.805775
1.64429
1.97755
2.03858
0.502349
0.581409
-0.535342
-0.299532
-0.239907
-0.995713
-0.946911
-0.589933
-0.0818219
1.04577
-0.976193
-0.168224
0.471613
-0.673552
-0.282219
0.278225
1.22154
1.73791
0.957077
-0.199356
0.199785
-0.806048
-0.810365
-1.40307
-0.117941
-0.525333
-0.789911
-0.345383
0.308722
1.17686
-1.19529
-1.60032
-1.55084
0.879852
1.62555
1.37613
0.224595
0.441548
-1.23169
0.348977
-0.682905
1.45602
1.47002
1.60087
0.641452
0.582674
0.0408108
-1.84623
1.64402
1.31578
1.36185
1.80329
0.659224
-1.22575
-1.42061
-0.901
-0.181057
-0.547428
-1.35654
-0.823244
-0.797855
0.725841
-0.244209
-0.687299
-0.342126
0.947979
1.29387
1.14554
-0.297517
0.773949
-1.41361
1.02753
-1.41121
-1.69239
1.27876
0.67267
0.642761
-1.36098
-1.53134
1.89177
0.260454
-0.17782
-0.38963
-0.588748
-1.27362
0.258355
0.896158
0.915484
-0.390221
0.44275
-0.279721
-1.60638
-0.0248552
0.294964
-0.658583
1.36578
1.68387
-1.20158
-0.754661
-0.431408
-0.968791
0.328736
-1.41356
-0.964551
0.0143289
-0.508564
0.656486
-0.208216
-0.0581685
-0.531933
0.448986
0.403463
-0.0283551
1.39709
-0.109921
1.24715
-0.181042
-0.0852302
0.323964
-0.410964
-0.913209
-0.455245
-0.811988
-0.0612131
0.262138
0.389229
0.760586
-0.31299
0.0981462
-1.0839
-0.731472
0.182728
-0.564921
0.570761
-0.857216
-0.128803
-1.09287
-0.659027
-0.44045
-0.672356
0.270469
-0.672244
-1.11971
0.253361
-0.732381
-0.707129
0.896941
-0.720654
0.346301
-0.0302604
-0.1768
-1.13914
-0.143048
-0.268983
-0.718695
-1.04577
-0.248012
-0.169678
-0.485701
0.299627
-0.385289
0.643773
0.676739
-0.0916292
0.0525972
0.0420787
-0.266699
-1.43118
-1.22093
0.650884
0.794025
0.55461
-1.33974
-1.41125
-1.35046
-0.673177
-0.76976
-1.16658
0.147805
-0.226823
-0.270751
-0.170381
0.285531
0.297036
0.466994
0.891678
0.991535
0.491249
-0.365308
-0.629252
-1.52407
0.755436
0.975505
-0.313045
-0.68743
-0.897538
1.2646
1.12854
-0.930671
-0.413695
0.522945
1.3411
-0.609142
0.476203
1.57473
-0.747409
-0.793354
-1.60786
-1.77589
1.08717
1.19614
0.789442
0.578801
1.12154
1.29977
1.17146
-0.459245
-0.773832
0.200512
0.0475641
0.473092
0.279274
-0.0477025
-0.903442
0.455474
-0.562105
-1.3061
1.24165
0.780125
0.174763
-0.0809832
0.689935
-0.459861
-0.572179
-0.554348
-0.308436
-0.717652
-0.375607
0.739386
0.0551832
-1.96627
-1.68446
-1.05025
-0.209268
1.7288
-0.808119
0.979143
0.758857
1.64789
1.29204
1.01618
-0.773044
0.155499
0.343345
-1.2225
-1.19666
-1.04403
-0.962203
0.0957013
-0.950866
-0.0371676
-0.697455
0.902628
0.472839
-0.380159
-0.838155
-0.840867
-1.08125
0.2253
-0.804419
1.3572
-0.929805
-0.27861
-0.852486
-0.717003
0.049892
0.896926
0.567518
0.574175
-1.31281
-1.56327
1.40563
1.35117
0.15397
-0.843457
-0.0127757
-0.911548
-1.76604
-0.113618
1.10205
-0.969047
-0.660023
-0.0311518
0.148143
0.793462
0.633658
-0.970603
-1.45978
-1.13699
-1.13988
0.9059
1.25151
1.07812
-0.607582
-1.18735
-0.909528
-0.228458
0.944153
0.571387
0.720595
1.28937
-0.958626
-0.903567
0.0396512
-0.689755
0.830397
0.0156142
-0.209762
-0.518635
0.281688
0.239172
-0.244929
0.140194
-0.235285
1.07633
1.22746
-0.672142
-0.358484
-0.294745
0.3789
-0.395871
0.151708
-1.10977
-1.29024
-1.29023
-1.31753
-0.618378
-1.18941
-0.933247
-0.70133
0.62395
0.944919
0.455362
0.167945
0.417769
0.518382
0.613628
-0.434251
-1.16245
0.789015
-0.171481
0.559436
0.925254
0.612263
0.50191
0.542314
-0.00830068
0.355023
0.67033
0.515554
0.375144
0.00900591
-1.04166
1.07918
-0.8703
-0.868809
2.52724
2.44304
2.20711
-1.16174
-0.133651
-0.109111
1.64004
1.82301
-0.103576
-1.74824
-2.08335
0.487974
-1.00089
1.99847
-0.980622
-0.837585
-1.0333
-1.29144
0.89262
-0.0677748
-0.611744
0.443669
-0.998111
-0.766409
0.322315
0.377771
-0.0191178
0.51858
-0.776927
-0.634403
-0.509044
-0.732593
-0.779055
-0.26802
-0.145209
0.990431
0.0462213
0.114019
-0.0153065
0.755744
-1.25043
0.873624
0.23839
-1.16239
-0.823103
-1.09851
-0.55013
-0.7145
1.24784
1.24934
1.55646
-0.0983848
-1.06992
-0.150426
-0.220261
-0.784769
-0.420262
0.722447
-1.56878
1.00449
0.835875
0.898784
0.850521
0.737653
1.29517
-0.816163
-0.520283
-1.39498
0.561814
1.91418
1.99367
0.680998
-0.403861
-0.659264
-1.39909
1.76783
2.27105
2.2052
-0.469774
-0.59721
0.543834
-1.13757
0.0211041
-0.827894
-0.871931
-1.49553
-1.16376
0.128392
-1.29863
-1.38638
1.61917
0.732149
-0.0695606
1.37317
-0.20968
0.669777
0.152579
1.39934
1.29932
-1.56433
0.799444
-0.0568235
0.478616
-0.423842
-0.520652
-0.24772
-1.13588
-0.979023
-0.593329
-1.37248
-1.45981
-1.38626
-0.560966
0.0788697
-0.531342
0.462494
0.654097
0.964137
-0.419966
0.172721
-0.429862
-0.402917
-1.48285
-1.29037
-1.37902
1.05114
0.958892
-0.724534
-0.181438
2.81948
2.56652
0.256652
0.0634284
0.788097
-1.76969
-0.213168