<VTKFile type="UnstructuredGrid" version="0.1" byte_order="LittleEndian">
<UnstructuredGrid>
<Piece NumberOfPoints="11465" NumberOfCells="22404">
<PointData Scalars="abs_term_u1">
<DataArray type="Float64" Name="real_part_term_u1" format="ascii">
-0.536856
-0.472567
-0.870346
-0.100961
0.631981
-0.00984079
0.085388
0.065992
0.029712
-0.338534
-0.208489
-0.110026
-0.0427257
0.428682
0.306336
-0.275397
0.0103748
0.26219
0.408349
0.602368
0.574091
-0.00348736
0.0618335
-0.241098
0.0171519
-0.0241059
-0.175006
0.539353
0.812751
0.854713
-0.0579347
-0.218907
-0.0176361
0.602172
0.530531
0.498727
-0.191619
0.46219
0.140262
0.473335
0.540262
0.146497
-0.157458
0.773027
1.06976
1.38279
-0.419242
-0.226732
-0.0184919
0.266729
0.256728
0.0612194
0.563228
0.902457
0.801028
0.109005
0.494874
-0.182746
0.585092
0.504225
0.657538
0.688558
-0.506863
-0.355023
-0.256065
0.232585
0.104666
0.714434
-0.108328
0.684041
0.36024
0.218078
0.312783
0.090803
-0.140905
0.218565
0.113374
-0.30099
-0.848819
-0.163466
0.0881525
0.216292
-0.932047
-0.641596
-0.868355
0.222003
-0.00795238
0.450549
0.234067
-0.200883
-0.285326
-0.365848
-0.0893375
-0.0396027
0.0352345
0.334673
0.198253
0.591833
0.0887909
0.264431
0.296198
0.211534
0.0834453
0.442881
0.269637
-0.173545
-0.168039
0.108769
-0.226709
-0.0169456
-1.11372
-1.00432
-0.418552
0.175613
0.151881
0.809208
0.779884
0.675253
-0.0173178
0.398868
0.425972
-0.252852
-0.0331588
0.0532005
0.00511576
0.074306
-0.229835
0.377979
0.370902
0.692814
0.536141
0.587001
0.985278
0.649837
-0.403153
0.0632246
0.0967472
0.0984776
-0.164036
-0.291613
-0.244931
0.641749
0.504832
0.960397
-0.415151
-0.742333
-0.717689
0.337438
0.10101
0.238785
0.798971
0.284673
0.166723
-0.0596573
0.408807
0.703387
0.238691
-0.226099
-0.352614
0.0834091
0.209431
0.314317
-0.0445395
0.388315
0.656713
0.165847
0.260066
0.308448
-0.11449
1.42001
-0.447062
-0.488294
-0.8022
0.309402
0.417788
0.329586
-0.511899
0.460015
0.1729
-0.0728143
-0.518924
-0.494884
-0.82934
-0.773076
-0.965505
-0.0442018
0.0210152
0.319752
-1.24281
-1.28335
-0.679696
0.0619344
0.43106
0.45976
0.788002
-0.571256
-1.04842
-0.913482
0.381316
-0.373475
-0.586642
-0.694356
0.142038
-0.557809
-0.180139
-0.310922
0.718228
0.669564
0.795085
-0.232304
-0.212804
0.486708
0.406735
-0.373737
0.123127
0.0836748
0.129557
0.706972
0.549719
0.325917
0.380077
-0.304785
0.171042
-0.617523
0.477726
-0.14225
-0.462555
-0.294928
-0.885598
-0.231563
0.128675
-0.0617489
-0.370616
-0.177261
-0.0515098
0.0569921
0.0874677
-0.501854
-0.369127
-0.298379
0.515267
-1.15813
-1.04904
-1.14554
-0.207412
0.36006
-0.106778
0.0134216
0.367934
-0.810097
0.193539
-0.340665
-0.377818
-0.542719
0.780078
0.438131
0.857757
-0.582115
-0.273422
-0.182848
-0.400611
-0.125386
-0.434547
-0.238548
0.763242
0.882425
0.358937
-1.17306
-1.41316
-1.08512
0.464941
-0.458932
0.482396
0.403083
-0.92849
-0.061872
0.265886
-0.308395
0.46937
0.260746
0.304575
-0.00328999
-0.0735573
-0.461944
-0.518901
-0.532423
-0.395048
-0.277903
-0.577331
0.402397
0.407957
-0.170029
0.142841
-0.104524
-0.174861
-1.78884
-0.703489
-1.38291
0.395743
-0.561068
-0.244149
0.350575
0.507215
0.523716
-0.663418
0.31557
-0.983279
-1.11899
0.105383
-0.412901
-0.296199
-0.105749
0.763197
0.494265
0.264391
-1.18085
-0.209119
-0.383108
-0.238823
-0.181246
-0.33546
0.366862
-0.3079
0.513525
0.475972
0.271958
0.348882
0.486973
0.598793
0.550126
0.113595
-0.129523
-0.126171
0.182784
0.897289
0.297856
0.00730503
-0.467243
-0.463808
-0.0128992
-0.240755
-0.0512055
-0.0605809
0.18706
0.759915
0.57875
0.734879
0.550346
0.228945
0.148142
0.398768
0.181689
0.491013
-0.671604
-0.00309529
0.0847231
-0.0965589
-0.363514
-0.0745064
0.122603
-0.118943
-0.586569
-0.589477
-0.856205
-0.216975
-0.360076
-0.066075
-0.604
-0.695394
-0.896459
-0.0550083
-0.35476
-0.302318
-0.11616
-0.127859
-0.134997
0.368522
1.01725
1.22267
0.849052
-0.46714
0.723064
0.283439
0.437488
-0.127572
0.232317
0.234568
-0.477963
0.327131
-0.103496
-0.292894
-0.6366
0.963498
1.04795
0.753484
1.24421
0.184841
0.276326
0.317884
0.647044
0.469847
0.809216
0.15495
0.779327
0.234831
0.186245
0.243969
0.936823
0.953663
0.482944
0.177807
-0.0685382
0.0962843
0.144709
-0.472551
0.274214
0.413499
0.0913489
0.509649
0.828334
0.346786
-0.17727
0.235189
0.117214
-0.637072
-1.22244
-1.16842
-0.0815121
-0.571195
-0.614169
-0.482286
0.011857
-0.63834
-0.138647
-0.889303
-0.713819
-1.15176
-0.211088
-0.418577
0.645948
0.22432
-0.757382
-0.376778
-0.494454
0.513504
-0.302411
-0.469155
0.5526
-0.00630141
0.031078
0.101664
0.689744
0.504187
0.641651
-0.0220123
-0.307779
0.173809
-0.287403
-0.149762
-0.169759
0.314659
-0.0825557
0.296301
-0.126593
-1.16849
-0.391405
-0.15868
-0.505836
0.852182
0.790747
-0.263993
1.03256
0.889842
0.816514
-0.325782
-0.0468307
-0.262471
-0.0736744
-0.293203
-0.517792
0.659741
0.576295
0.246167
-0.407187
-0.393922
0.303856
0.540322
0.494524
-0.243003
-0.211321
0.270477
-0.359817
-0.755061
-0.60868
-0.0204292
-0.433605
-0.104005
-0.21193
0.678825
0.936515
0.638601
0.416302
0.563824
-0.25431
-0.58964
-0.981665
-0.362541
-0.172413
0.874441
-0.513142
0.0159206
-0.274106
-1.13201
0.128744
0.289351
0.614555
-0.315607
0.24966
-0.314759
-0.0221893
-0.453642
-0.0448972
0.445871
0.832635
0.479588
0.657404
-0.801082
-0.316959
-0.408828
-1.1614
-0.87529
-1.00881
-1.08972
-0.78994
-0.920371
0.259092
0.346257
0.121048
0.0102917
0.143066
-0.235246
-0.273444
-0.42538
0.41685
0.0166957
0.126458
0.2961
-0.229283
-0.537753
-0.445849
-0.0105094
-0.0589611
0.0593834
0.785355
0.612031
0.471973
0.0246521
0.276027
0.140377
0.661094
0.502239
-0.27457
-0.478256
-0.490093
0.126608
0.130762
-0.440963
-0.221358
-0.617617
-0.391729
-0.406482
0.0825437
0.632832
0.346769
-0.221284
-0.194477
-0.891974
1.64358
1.62272
1.72374
-0.221013
-0.377633
-0.187865
0.264279
1.43211
-0.418568
-0.697881
0.207209
-0.412007
-0.186199
-0.0322805
-0.150621
0.0406255
0.228202
0.163635
0.343468
-0.673036
-0.244198
-0.225289
-0.273089
-0.198197
0.826785
0.706803
0.684318
0.179504
-0.857247
-0.626639
-0.539884
-0.401979
-0.137837
-0.390642
-0.310529
0.0669572
-0.115315
0.117458
0.22836
0.169226
0.746282
0.622304
-1.00303
-0.745469
-0.427496
0.294262
-0.469609
-0.165016
0.394381
0.107177
-0.0581568
0.041547
0.885886
-0.330745
0.539248
-0.725845
-0.660799
0.454733
0.793482
-0.256318
-0.0735112
-0.447843
0.0808038
-0.194017
0.0328449
-0.34017
-0.381617
0.121507
-0.893581
-0.77172
-0.769428
0.104243
0.440063
0.264103
-0.677938
-0.471812
-0.310493
-0.430281
0.0982301
0.0100423
-0.00828119
-0.0368427
0.0114459
-0.00617973
-1.49247
-1.39312
-1.47037
0.272742
0.387154
0.210451
0.0673153
-1.09033
-0.66016
-1.18703
-0.834961
3.92167e-05
0.146004
0.270676
0.0357806
0.433244
0.0201388
0.318247
-0.0648531
-0.550477
0.143461
-0.19977
-0.117258
0.144212
0.5627
-0.690752
0.0631808
0.579546
0.38739
-0.359393
-0.843101
-0.70642
0.743397
0.252694
0.647039
-0.261701
-0.428968
-0.576619
-0.237714
0.0924354
-0.230956
-0.0794165
0.282517
0.515052
-0.604385
-0.663999
-0.520247
-0.393139
0.200689
-0.0266067
-0.619516
-0.786415
-0.791864
0.0142224
0.00165125
-0.0812596
0.40762
-0.416599
0.0358985
-0.0015182
0.153424
0.773635
0.704024
0.708105
-0.0800572
-0.0845698
-0.559069
-0.514887
-0.0920649
-0.195277
-0.101052
-0.530502
-0.36699
0.211603
-1.15966
-0.732956
-1.2711
0.114561
0.0687653
0.0603982
0.0311979
-0.191669
-0.636653
0.0156722
0.364635
0.305392
-0.82619
-0.361569
-1.53723
-0.0653514
-0.00588951
0.053982
-0.130125
0.0374153
0.59404
0.397819
0.0658783
0.213349
-0.0204383
0.3813
0.407046
0.66031
-0.403174
0.178402
0.998038
0.640582
-0.976658
-1.00932
-0.932719
1.07344
-0.121707
-0.0982849
0.966567
-0.204493
0.133407
0.087616
0.492506
0.0500579
-0.226125
0.0233353
-0.376322
0.377432
0.411113
0.731209
-0.311145
0.07757
-0.0503717
-0.244768
0.622388
0.723188
0.838687
-0.777294
-0.836011
-0.725271
0.438374
0.361201
0.172623
0.0995982
-0.271497
0.0584523
0.640285
-0.877286
-1.09329
0.671912
1.03849
0.44226
0.401245
0.489777
0.20218
0.757039
-0.12659
0.683995
-0.17767
-0.170392
-0.0625752
0.489672
0.489802
0.764788
0.798201
0.524452
0.388316
0.186526
0.083099
-0.0701065
-0.084974
-0.189574
-0.210637
0.0192504
-0.214599
-0.0757406
-0.14002
0.101725
-0.0588579
-0.973849
-0.835021
-1.3621
0.22786
-0.186478
-0.187767
-0.610017
0.633545
0.327332
0.343521
-0.183752
0.428749
-0.770415
-0.271474
0.0772376
-0.233509
0.185083
-1.67784
-2.00415
-1.73645
-0.206267
0.260493
-0.22142
0.519185
0.277896
-0.404628
0.464493
0.200549
-0.523712
-0.822344
-0.284492
-0.729128
-0.359935
-0.369905
0.020424
-0.0218339
0.00322451
0.155327
0.0435009
0.268715
0.0604055
0.187737
-1.36337
-0.864488
-1.34568
0.977179
0.919531
0.223838
-0.26309
0.989708
0.366675
0.562803
-0.99341
-0.614221
-1.07667
-0.506299
0.13221
0.386824
0.624182
0.341167
-0.254378
0.127136
0.524657
0.325927
0.197709
-0.56783
0.187916
0.319466
0.659427
1.45024
1.18706
1.20804
-0.769717
-0.276986
-0.562646
0.263546
0.99835
0.196279
0.127994
-0.0658532
-0.109161
-0.486185
-0.507518
-0.424193
-0.504032
0.252343
0.168317
7.17418e-05
0.3506
-0.388994
-0.425578
-0.329326
-0.160515
-0.29278
-0.402049
-1.00478
0.23913
0.243846
0.665695
-0.3793
-0.0901993
0.346316
0.367282
0.0345126
-0.0845046
0.0442936
0.216624
0.429031
-0.89869
0.111026
0.401158
0.81137
-1.00173
-0.999707
-1.1472
-0.338255
-0.871584
-0.0108484
-0.0627671
-0.528892
-0.0172344
-0.272894
-1.95728
-1.47578
-1.67568
0.764256
0.479828
0.355559
-0.0300101
-0.619468
-0.232564
-0.565594
-0.604389
-0.119214
-0.288935
-0.0948459
-0.168942
0.653785
0.658598
1.2108
0.96457
-0.0755215
0.00507345
-0.445444
0.0447729
0.186042
-0.325631
0.174042
0.118178
-0.104121
0.51352
-0.0158956
-0.402431
-0.439226
-0.462256
-0.694799
0.397732
0.0642775
0.0315926
0.16502
0.0717665
-0.404612
-0.38214
-0.584202
0.0213395
-0.138854
0.011428
-0.127862
-0.00484573
-0.289901
-0.194826
-0.296649
0.177013
0.206746
-0.107289
-0.578701
0.0954913
0.047433
-0.572261
0.0836233
-1.82609
0.174843
0.532899
0.00972728
0.0183461
0.909466
0.065364
0.0310418
-0.0454466
-0.139703
-0.330335
-0.306338
-0.297172
-0.0140059
0.0260192
0.173475
0.0150939
-0.472513
-1.59563
-1.0744
-0.571122
-0.279197
-0.478822
0.273784
0.232536
0.422565
0.217921
-0.307062
0.047334
0.0609028
0.0280024
0.215268
-0.660478
-0.141985
0.848788
0.742334
1.42095
-0.916392
-0.74422
-0.401981
-0.569173
0.409636
-0.477716
0.326092
0.486105
0.452957
0.38829
0.0870242
0.409532
0.211406
0.64021
-0.738848
0.0392319
-0.106427
-0.3366
-0.639391
-0.503458
0.178067
0.510349
0.244215
1.12586
0.389404
0.360666
0.535068
0.117028
-0.306839
-0.107354
0.138949
0.725189
0.32543
0.837275
-0.344701
-0.278337
-0.19435
-0.0285501
-0.298025
-0.267865
-0.030572
0.0956522
-0.0306714
-0.0173812
0.187819
-0.0294504
-0.0969481
-0.0692585
-0.778951
-0.551052
-0.653396
0.0700886
-0.384318
-0.153303
0.00038847
0.261233
0.156725
-0.30587
-0.38714
0.0751986
0.389354
0.401004
-0.117904
0.00824563
-0.0694892
-0.706703
-0.138189
-0.231074
-0.0821596
0.765663
0.274181
0.324064
0.0321433
-0.0657545
-0.511148
-0.692216
-0.438662
0.125895
0.552602
0.265665
-0.524747
-1.02549
-0.542224
0.437889
0.0594229
-0.0654571
-1.39022
-0.703732
-1.37881
-0.294267
-0.164663
-0.216311
0.251157
-0.0643377
-1.41642
0.386687
-0.391711
-0.237223
0.244743
-0.0147583
0.22622
-0.166171
-0.158893
-0.206716
0.231677
0.725266
0.881058
0.297584
0.488745
1.2251
0.942583
0.728906
-0.280168
1.80302
1.5368
1.67485
0.0281514
0.291439
0.0698416
0.318745
-0.34893
-0.21223
-0.180161
-0.368217
-0.537507
-0.0436366
0.333836
0.191987
-0.0755886
0.257617
0.210329
-0.125251
0.207448
0.230429
0.240668
-0.919476
-0.758902
-0.717345
-0.0263484
-0.229294
0.426994
0.336394
-0.100968
0.0518994
0.510635
0.268466
0.0714759
1.6437
-0.638214
-0.6173
-0.632406
0.815374
0.791225
0.709945
0.135326
-0.712622
-0.309007
0.311527
-0.192729
0.26397
0.210652
0.312236
0.735273
0.429331
0.119694
0.387805
0.150866
0.0384398
0.0881757
0.448063
0.266487
0.190552
0.481627
0.343849
-0.212371
-0.143459
-0.147805
0.095154
-0.0216063
-0.806178
-0.802705
-0.935306
-0.0823287
-0.184918
0.0775044
-0.588711
-0.0133829
0.617563
0.538528
0.181477
-1.07218
-0.926679
-1.59373
0.291056
-1.07964
0.0845252
0.248742
-0.166062
0.373224
0.275732
0.462246
-0.69009
0.00838913
-0.902852
-0.156756
-0.253951
0.0770294
0.324731
-0.444499
-0.303285
-0.345706
0.142065
-0.353
-0.0627647
-0.375253
0.157587
0.116046
0.140308
0.126085
-0.340508
-0.0100611
0.457867
0.296295
0.217891
-0.564858
-0.198043
0.0400675
0.0941859
0.301316
-0.781604
0.932008
0.971333
-0.368503
-0.314335
-0.624034
0.136615
0.0169587
0.562246
1.06259
0.51575
-0.425493
-0.439658
-0.441897
-0.338251
-0.276987
0.0133537
-0.198145
-0.0851838
-1.73953
-1.64808
0.443001
-0.528586
0.362658
0.605828
0.420822
0.493073
0.060011
0.565041
0.616593
0.57728
0.173562
0.167123
-0.135168
0.184496
0.420035
-0.125834
0.255575
-0.0155345
1.04042
0.854088
0.368183
0.21543
0.395589
0.981593
0.342204
-0.216659
-0.134809
0.510947
-0.0348477
-0.0160331
0.0507667
0.153628
-0.179818
0.380915
0.549562
-0.463608
-0.0127409
-0.0504035
0.0454248
-0.261923
0.243212
0.38132
-0.106908
0.20806
0.118628
0.345206
0.170262
-0.0178038
-0.0433471
-0.108824
0.377527
0.137914
1.27061
1.65199
-1.48826
-1.14252
0.672639
-0.406027
0.251887
-0.266879
0.173047
-0.476953
-0.93317
-0.331043
-0.786788
-0.62916
-0.163112
-0.315953
-0.998214
-0.241443
0.640672
0.673871
0.203059
0.0946552
0.412563
-0.338415
-0.222386
0.599473
0.257108
-1.20522
-0.0277611
0.0055684
-0.22185
-0.433934
-0.0193787
0.192151
0.877998
0.791121
1.00175
0.0131963
0.0703233
0.133031
0.138815
-0.59912
-0.145634
-0.0502339
0.227397
0.661858
-0.278704
0.074733
-0.183215
-0.0905158
0.00131587
-0.555643
0.164979
0.0441388
-0.0860142
1.29946
-0.524207
0.55271
0.565565
-0.199914
0.12006
0.192519
-0.0322258
-0.425807
-0.0207537
-0.0862156
-0.54032
-0.129238
-0.296766
-0.121583
0.0502708
0.346669
0.134273
-0.47506
-0.185881
0.422862
0.129801
-1.0127
-0.730456
-0.789508
-0.337381
-1.40915
-1.79803
-1.29013
0.115895
-0.0795124
0.177284
0.143827
-0.153836
0.296497
0.228231
-0.243248
-0.771983
0.114758
0.455513
0.0378244
0.208939
0.0449035
0.173772
0.242189
-0.719378
-0.497538
-0.904688
-0.457579
-0.803075
0.875088
-0.213627
-0.429289
-0.735372
-0.00957682
-1.02434
-1.05104
0.354899
0.0735079
-0.367607
-0.431973
0.0355065
-0.745279
-0.0517893
0.586223
-0.0843166
0.73322
0.716464
0.371581
-0.113017
-1.11103
-1.78489
-0.899566
0.805668
0.0268974
-0.0511422
-0.481551
-0.450576
-0.52178
0.222031
-0.0997579
0.199137
-0.303208
0.0711534
-0.754016
-0.197184
0.406485
-0.781312
-0.545732
-1.08591
-0.605141
-0.338685
-0.10792
0.558296
0.0613505
-0.0953731
0.0945929
-0.835673
-1.01459
-0.340338
-0.130899
-0.347881
-0.411377
-0.0716639
-0.148767
-0.130424
-0.462711
-0.244204
-0.276885
0.0363355
0.908575
1.0183
-0.111305
-0.171588
-0.402816
-0.4561
0.107727
-0.223956
0.190234
0.0929295
-0.0320172
0.486701
1.1412
0.163406
0.317943
-0.107697
0.261255
-0.112276
0.0278871
0.126109
-0.0899727
0.00720044
1.01474
0.993604
0.258533
-0.276801
-1.58589
-0.408841
0.232032
0.368386
0.261763
0.32755
-0.360213
-0.243032
0.160634
0.208943
0.43121
0.432351
0.210377
0.21568
0.458227
0.341986
0.373608
0.012868
0.707609
0.459935
0.197441
0.26008
0.124244
0.0905897
-0.377715
-0.308595
-0.350816
-0.48738
0.452186
0.1533
0.0745532
-0.0480388
-0.807473
0.355315
0.362585
-0.34285
0.0522137
0.483197
-0.745068
-0.383717
-0.628096
0.0623898
-0.294097
0.734551
0.768333
0.645853
-0.151805
0.469856
0.2237
-0.107887
-0.400007
-0.413141
0.147709
0.682857
0.936566
0.746287
0.399434
-0.250841
-0.0344149
0.0710808
1.40744
1.13046
1.50174
0.408849
0.382203
0.589814
-0.377976
1.06474
0.842657
0.479918
0.520032
0.917117
-0.0855217
0.694724
-0.0336413
-0.141613
-0.330845
-0.694553
-0.773233
-0.327565
-0.179159
-1.3265
-0.0268355
0.408006
0.628754
0.853278
0.0224306
-1.34967
-0.799649
-1.01401
-0.861083
-0.952769
-0.0700333
0.680376
-0.135553
-0.244661
0.111363
0.992773
-0.203942
-0.380852
-0.346502
-0.068124
-0.0953127
0.449618
0.535354
0.060683
0.465368
0.492586
-0.000197182
-0.0996379
0.074975
-0.19644
-0.0448181
-0.683118
-1.6892
0.343313
-0.15673
-0.201879
-0.0757833
0.163895
0.00623072
-0.221426
-0.138366
-0.0743972
0.394945
0.424983
0.154979
0.335378
0.0806717
-0.323197
-0.235532
-0.58639
-0.503115
-0.190588
0.335742
-0.0132937
0.234214
-0.0584041
-0.140311
-0.107588
0.189174
0.392914
0.775411
-0.272578
-0.696117
-1.41294
-0.287896
1.45374
1.35459
1.87152
-0.501242
-0.62934
-0.134679
0.0342211
0.329723
0.959723
0.854247
0.950107
-0.193371
-0.258195
-0.362057
-0.385468
0.0838062
0.405608
-0.398118
-0.0113008
-0.390988
0.887587
-0.0459245
-0.0684583
-0.00168484
0.206207
0.251391
-0.791176
-0.5957
0.950776
-0.655794
-0.0793133
-0.118608
0.0739414
-0.131795
-0.291109
-0.616702
-0.198563
0.0406189
0.181868
-0.352868
-0.859786
-0.601719
-0.0580676
0.320951
0.373186
0.0739449
0.197516
-1.00238
0.210521
0.446158
0.321979
-0.358842
0.647207
0.325494
0.172222
0.666868
0.477473
0.401025
-0.117067
-1.1766
-0.995972
0.396164
0.26623
-0.0738083
-0.117492
0.354288
-0.11536
0.412594
0.149049
0.24231
-0.177487
0.0415005
0.0843914
0.101842
0.0319267
0.167249
-0.190023
-0.126073
-0.774345
0.677241
0.149174
0.400574
0.373754
0.454716
0.390079
0.616514
0.0328564
0.291854
0.523711
0.124012
0.408484
-1.81645
-1.01736
-1.17469
-0.0996821
-0.253632
-0.411804
0.0188855
-0.398661
0.190082
0.00886326
0.0771787
0.0195968
0.320345
-0.612733
-0.346642
-0.50173
0.244079
-0.885689
-0.575077
0.988357
0.671481
1.10616
-0.449244
0.323002
-0.333895
0.392404
1.27099
1.60495
1.25165
0.6387
0.591393
0.600472
-0.0583459
-0.670433
0.208319
-0.477067
0.540471
0.120379
0.756835
0.140872
0.479711
0.240753
-0.309341
-0.187904
0.580561
0.397686
0.375032
-0.859501
-0.316769
-0.439187
-0.415737
0.159121
0.806205
-0.170822
0.906277
0.8689
0.697974
-0.441889
-0.555601
-0.166203
-0.21483
-0.0789241
0.791246
0.885598
0.203131
-1.34796
-0.920983
-0.389742
-0.614791
0.221056
0.603543
-0.755305
-0.721696
-0.539871
-0.372905
-0.201033
0.0166656
-0.0919143
-0.376856
-0.505377
-0.146702
0.551749
0.388822
-0.521806
0.0204314
0.0815983
0.00870746
-0.723677
-0.980679
-0.788635
-0.253031
-0.743323
-0.453761
-0.484321
-0.413213
0.0030559
-0.146596
-0.522169
0.546745
1.0512
0.989624
-0.556034
-0.545359
-0.376323
-0.420512
-0.836558
-0.131313
0.610603
0.609704
0.676725
1.22612
-1.01997
-0.739173
-1.11468
0.453659
0.0271907
-0.836281
-0.200672
-0.496856
-0.323078
-0.398125
-0.0903427
-0.193517
-0.362027
0.340858
0.614374
0.505466
0.223659
0.289382
0.213271
-0.078534
-0.065797
0.667448
0.0804483
0.766222
-0.516168
-0.248858
-0.272692
0.474375
0.155879
0.351845
-0.290113
-0.154522
-0.288874
-0.278542
0.162039
0.51286
-0.0951341
0.126115
-0.370596
0.0940687
-0.236333
1.51679
0.405645
0.246854
0.28317
0.187593
-0.365567
0.0321148
0.143108
0.748678
0.645756
0.940793
0.403048
-0.879763
-0.443121
-0.458671
0.346303
0.550788
0.317369
0.364026
0.517961
0.188629
0.24107
0.0667706
0.799038
1.0497
0.742088
-0.838275
0.248023
0.431532
0.621127
0.665777
0.812709
0.27635
-0.066637
-0.246731
0.213911
0.186669
-0.510477
-0.708995
-0.360215
-0.293322
0.134216
-0.0133027
0.951036
0.972238
-0.0834978
0.0274336
-0.401102
0.0857526
-0.232282
0.489341
0.505942
0.455008
0.597313
0.955805
-0.828652
-1.4886
-1.04626
0.602607
0.0612696
0.0413974
-0.75494
-0.0957725
-0.338416
-0.794342
-0.710545
-0.246036
-1.22623
0.469786
1.06637
1.06761
1.18468
0.486681
0.832489
0.391386
0.307448
0.231494
-0.48999
-0.731565
-0.596581
-0.481916
0.618624
-0.128633
-0.490304
-0.194874
0.232335
-0.804704
0.102913
0.475003
0.227549
-0.160739
-0.62249
-0.453526
-2.10033
-1.80914
-1.87304
0.386608
0.664256
0.504909
0.474179
0.344576
0.253186
-0.25945
-0.446552
-0.38091
-0.0263189
-0.772116
-0.329699
-1.09802
-0.45714
-0.0340304
-0.350066
-0.284412
-0.0815075
-0.528509
-0.58203
0.473427
-1.37241
-1.24133
-1.07916
0.182364
-0.105501
-1.10173
-0.0388092
0.198126
0.100004
0.0240502
-0.0281151
-0.225656
-0.46645
-0.122634
-0.0343363
-0.0588098
0.342318
0.457301
0.0674065
0.0429539
0.135566
0.384328
0.548836
0.260673
-0.795828
0.317081
-0.244527
0.28517
0.236117
0.439619
0.403178
0.206849
-0.239315
0.30405
-0.0264803
-0.623464
0.457498
0.416726
-0.00364211
0.513799
-0.0264859
-0.0686614
-0.634821
0.60286
1.20724
1.34633
1.05811
-0.372663
-0.31131
0.1189
-0.0995495
0.429809
0.661836
0.204527
-0.720587
-0.0283587
-0.139591
0.0611119
0.161952
-0.0862522
0.6178
0.0590279
0.278902
0.124517
-0.320851
-0.679727
-0.201633
-0.129098
-1.09772
-0.541736
-0.932483
-0.531602
-0.643761
-0.793215
0.0537714
0.194864
0.225208
-0.110295
0.694501
-0.645614
-0.642232
-0.659962
-0.335101
-0.317531
-0.110705
-0.386036
0.610063
0.505081
0.374571
0.557874
0.563326
0.0247938
1.51071
-0.468906
0.358622
0.461882
0.314107
-0.523288
-0.394459
0.104053
-0.488176
-0.359493
-0.589162
-0.331995
-0.65765
-0.221378
-0.753955
-0.797696
-0.364924
-0.0894085
-0.299956
0.259038
-0.360884
0.127946
0.449143
-0.0728267
-0.543975
-0.24406
-0.17547
0.936783
0.500082
0.324033
0.465473
0.822378
0.496337
-0.875567
-0.989821
-0.784924
0.34882
0.361267
0.170181
-0.470731
-0.257338
-0.150244
0.573575
-0.344635
-0.0304636
-0.368201
0.0506337
-0.24245
-0.508915
0.0387887
-0.470523
-0.475276
-0.797345
-0.447512
0.633084
0.280968
-0.256744
0.0119999
0.183539
0.318071
0.141601
0.196853
0.0533945
0.0488666
-0.448197
0.120146
0.47659
0.153027
-0.82647
-1.15275
-0.612069
0.940567
0.652389
0.839578
-0.863789
-1.25415
-0.939318
0.976933
1.23237
0.465295
0.396249
-0.464966
-0.307547
-0.480922
-0.28323
-0.368144
-0.109994
-0.159238
-0.380908
-0.081309
-0.086311
-0.548978
-0.724779
-0.605753
-0.913923
-0.476491
0.0438991
-0.190977
1.00689
0.189023
-0.225677
-0.515496
-0.230901
0.187638
0.302257
-0.248487
-0.353753
-0.104054
0.0827368
0.253877
-1.45572
-0.908381
-1.26156
-1.32795
-0.459914
0.253171
-0.0152066
0.235338
0.0550192
-0.102569
0.881672
-0.0344494
0.076699
0.0404058
0.0739741
0.361568
0.334234
0.242866
0.824205
1.48037
1.18318
-0.149189
-0.114908
-0.307383
0.388368
-0.0578531
0.842239
0.573919
0.711127
0.147069
-0.000925789
1.50009
1.13227
0.0542262
-0.0947367
0.487117
0.478082
-0.11422
0.100145
0.757328
0.701307
0.65847
-0.1021
0.496291
0.46969
0.233754
0.0881636
-0.052812
0.397679
-0.445955
-0.324341
-0.0586286
0.165598
-0.391568
-0.242017
-0.623315
-0.28265
-0.658172
0.205583
-0.9242
0.150356
0.0317576
0.117153
-0.513221
0.545241
-0.398848
0.0963682
-0.224697
0.320573
0.0886822
-0.185448
-0.694453
1.54187
1.24254
1.26313
-0.0120128
0.0842276
0.408107
-0.151569
-0.869377
-0.749892
0.769296
0.252787
-1.59573
-1.23781
-1.13588
-0.904993
-0.0188989
0.50405
-0.200439
-0.274172
0.0540187
-0.605244
-0.540311
-0.713992
1.17681
0.57468
0.937709
0.315955
-0.604486
-0.492527
-0.646426
0.683811
-0.428237
-1.14283
-0.284405
-0.552265
-0.357072
-0.109079
-0.249254
0.0794027
-0.702608
-0.238764
0.470683
0.538916
0.37626
-0.212009
-1.12379
-0.30272
0.816116
-0.072162
-0.0441295
-0.0636359
-0.0154223
-0.136655
0.426931
0.26887
0.831614
1.12745
-0.241073
-0.0953172
-0.439662
0.595832
0.595746
0.707745
1.5593
1.79332
1.15966
0.671099
0.204057
0.619761
0.216485
-0.368206
-0.449623
-0.519562
-0.898074
-0.900843
-0.845715
-0.47828
-0.535516
-0.378011
0.356968
0.263057
0.494208
-0.145036
0.218912
-0.176138
-0.205518
0.0255697
0.96053
0.485223
0.49698
0.585831
0.489672
-0.227893
-0.169464
-0.48431
0.01137
0.834511
-0.367476
-0.023709
0.353422
0.16876
-0.0124002
-0.728159
1.05726
0.769463
-0.682142
0.867653
0.892931
-0.502742
-0.812547
-0.51246
0.171917
0.137022
-0.215794
0.779352
-0.233928
-0.466452
-0.443728
-0.502025
-0.482095
0.257373
0.638667
-0.0340243
0.462103
0.45617
0.386955
-0.0918749
-0.511942
-0.509686
-1.28299
-1.09563
-0.598479
0.575553
-0.205845
0.124848
0.385207
0.58075
0.567102
0.411827
0.5853
0.186731
-0.261557
-0.452229
-0.153908
-0.0724003
-0.322278
0.0670583
-0.0406745
-0.0767058
-0.318102
-0.583755
-0.620107
-0.36386
-0.408601
-0.0668662
-0.118618
-0.512421
-0.491882
0.513484
0.667799
0.837836
-0.571854
-0.147539
-0.267783
-0.810631
-0.701327
-0.536052
-0.392108
-0.278581
-0.0462049
0.147505
0.483859
0.463874
-0.239245
-0.500137
-0.47928
0.193478
-0.088805
-0.0529037
-0.0401571
0.491702
-0.164721
-0.010189
-0.735861
-0.485363
-0.521342
0.194556
0.436393
0.320964
0.171357
0.0115722
0.191326
-0.459063
-1.05326
-0.877064
-0.894772
-0.748928
0.23097
-0.946266
-1.30348
-1.37772
0.773776
-0.732192
-1.25884
0.95021
-0.523978
-0.238304
-0.156744
-0.189995
0.391026
0.0455687
-0.177618
-0.3409
0.491254
-0.107025
-0.0931073
-0.0914249
0.272443
0.264807
-0.0106745
-0.268301
-0.179557
-0.17311
-0.342708
0.055908
0.709557
-0.326949
-0.372121
0.08939
0.488328
1.73064
1.6431
1.88996
0.0846988
0.544977
-0.178876
-0.0534878
0.225045
-0.460774
-0.287323
0.048709
-0.396166
0.268888
0.727734
-0.057911
-0.672371
-0.546805
-0.364603
-0.120303
-0.0325783
0.031248
-0.314199
0.34748
-0.0550939
-0.508974
-0.762166
0.44757
0.014742
-0.230849
-0.106806
0.129039
0.705343
0.34297
0.426218
0.453605
0.53396
1.11359
-1.20066
-0.763637
-0.813793
0.274426
-0.070898
-0.490535
-0.784018
-0.743137
-0.675059
-0.335577
0.106112
-0.214694
0.219999
-0.0112714
-0.154157
-0.616895
0.910162
-1.1116
-1.0803
1.07811
-0.584223
-0.390818
0.432078
0.660905
0.608764
-0.596452
0.547925
-0.909671
-0.41087
0.250571
1.10737
0.624319
-0.127457
-0.870369
-0.698547
-0.242841
-0.666168
-0.684971
-0.968006
-0.118272
0.0920982
1.12494
1.07756
0.698678
-0.123684
-0.1585
-0.0315187
0.639344
0.806933
-0.0468686
-0.162285
-0.361978
-0.396837
-0.00291808
0.0534011
0.337981
0.364511
0.412448
-0.257708
-0.276889
-0.524223
-0.223933
-1.27328
-0.172714
-0.531046
-0.404232
1.19517
-0.561194
-0.579426
-0.43061
0.0238855
0.011693
-0.0739064
0.301906
0.687661
-0.312078
-0.830039
-0.104867
0.615379
0.793026
0.352876
0.249714
-0.20705
-0.0384131
-0.193951
0.816275
-0.115863
-0.105792
1.04989
0.785331
-0.199171
0.0675882
0.112247
-0.0477159
0.0160648
0.0418941
-0.110038
-0.209443
0.425438
0.342314
0.530316
-0.00754803
0.0128511
-0.605367
-0.0644846
-0.317313
-0.28784
0.262457
0.087854
0.316214
-1.56074
-1.06979
-1.19121
0.306906
0.344484
0.303838
0.389879
-0.262065
-0.663329
-0.194009
-0.12967
-0.172492
-0.257378
0.139008
0.309369
-0.179976
-0.0910328
-0.273742
1.02866
1.0569
0.0153681
0.000813051
-0.743712
0.605017
0.720301
0.574557
-0.209601
0.127202
-0.887372
-0.743406
-0.265378
-0.126079
0.581429
0.383051
-0.728658
0.0666453
0.927005
-0.0881025
0.131372
-0.342392
-0.329243
-0.1745
-0.128928
0.992331
0.980987
1.04301
-0.4976
-0.212914
0.390755
0.697811
0.576857
0.00277335
-0.39892
0.0989944
-0.524539
0.0516864
-0.630239
0.485106
-0.523784
-0.922368
0.5707
0.417505
0.456619
0.82153
-0.0429109
0.418513
0.601807
0.104799
0.0724484
-0.408663
-0.890606
-0.457017
-0.653036
-0.275121
0.260188
0.430133
-0.553647
-0.604239
-0.566302
-0.113684
0.637807
0.479622
-0.233756
-0.537852
-0.246771
0.235788
0.0564286
0.616006
0.633384
0.607024
-0.0234039
-0.391663
-0.479245
-0.916642
0.664388
0.651143
0.689976
0.820216
-0.000992151
-0.390371
-0.424431
-0.320959
-0.475393
-0.843627
-0.931792
0.148692
0.156072
-0.239067
-0.454495
-0.283729
0.118332
-0.0417811
0.427714
0.179576
0.29384
0.60761
-0.413615
0.168808
-0.432014
-0.720388
0.340288
-0.14898
-0.321881
-0.372927
-0.769145
1.00723
-0.305953
0.185551
-0.163822
-0.30466
-0.315614
0.185159
1.49796
0.230901
0.0195213
0.0321338
0.370244
-0.688438
0.0992888
0.0769609
0.126097
0.432687
0.878964
-0.775009
-0.833484
-0.583311
-0.599343
-0.606878
-0.413944
-0.166544
-0.195845
-0.461811
-0.0188837
-0.215774
-0.206499
0.0664101
0.249517
0.187771
0.866491
0.782756
0.422016
0.259902
0.707053
0.73717
0.490526
0.512303
-0.309857
0.141947
0.113392
-0.670684
-0.390429
-0.25746
-0.199583
0.57807
0.581154
-0.0839671
0.106735
0.114562
0.235217
0.839076
0.0413755
-0.255787
-0.0978979
-0.0816983
-0.0969591
-0.459552
-0.400108
0.205459
-0.156595
0.689661
-0.018317
-0.0145217
-0.0301813
-0.238919
-0.396408
-1.0233
-0.153877
-0.560255
-1.12014
-1.15215
0.234279
-0.694755
-0.475695
-0.662351
-0.143863
0.0070318
0.00945126
-0.325555
-0.0729679
0.436123
1.05259
0.963806
0.260676
-0.573505
-0.279134
-0.209198
-0.158324
-0.169597
-0.38325
-0.80508
-0.418299
-0.378372
-0.590826
-0.437385
-0.334101
-0.731402
0.299355
0.480683
0.403995
0.479834
0.656558
0.597628
0.528385
-0.356151
0.490081
-0.119491
-0.939856
-0.146819
0.0423327
0.552026
0.2992
0.003329
0.364169
0.22098
0.0137838
0.36557
-0.351579
0.344305
0.0833749
-0.0635009
0.5956
-0.0546613
0.190019
-0.663316
-1.7861
0.168303
1.68482
1.32409
-0.147103
0.404291
0.542411
0.179011
-0.397084
0.151895
-0.784456
-0.924592
0.00499764
0.142703
-0.0437031
-0.063974
0.0453814
0.0412107
-0.364569
0.260323
-0.171179
-0.120116
-0.177914
-0.238036
0.349999
0.298692
0.445568
0.66693
0.190237
0.557794
0.144635
0.317318
-0.975053
-0.701167
-0.34277
0.778688
0.791883
0.148758
-0.0199719
-0.18013
0.878159
0.297315
0.0209397
0.193021
-0.840854
-0.638513
-0.261963
-0.221116
-0.160966
0.0367253
0.2872
-0.411993
-0.0778506
-0.0289158
-0.00960542
0.24306
0.36252
-0.38186
-0.284859
-0.17037
0.521888
-0.0506557
0.883588
-0.635802
-0.662295
-0.381346
-1.23438
-0.863856
-0.103047
-0.217576
-0.275333
-0.498029
-0.563296
0.699674
0.811106
0.0731693
0.0150406
0.494598
-0.099366
-1.05172
0.362664
0.510168
0.0288338
-0.104151
0.202374
-0.130577
-0.201229
-0.171064
-0.0877342
-0.49697
-0.171856
-0.163743
-0.0927692
0.674472
0.319605
-0.0843596
-0.225993
-0.422524
-0.379763
-0.0525882
0.239728
-0.25703
0.333356
-0.125856
0.0799835
0.129029
0.297148
-0.125578
0.517834
0.413568
0.429621
-0.674509
0.762671
0.755041
-0.538166
0.615419
0.159752
0.26914
0.272985
0.640854
0.698583
1.25255
-0.377366
-0.51286
-0.181616
-0.295761
-0.30369
-0.319068
0.377484
-1.09393
-0.881439
-1.19375
-0.132586
-0.0405664
-0.177696
0.314118
-0.281693
-0.479637
-0.16022
0.160268
-1.49635
-0.144853
-0.684308
-0.377299
-0.0201945
-0.312214
-0.434244
0.204269
-0.300011
-0.140504
-0.147393
-0.477729
0.148809
-0.985086
-0.0759807
0.293042
-0.276157
-0.194392
1.52859
1.44308
1.39693
-0.34031
-0.224971
-0.12424
0.650053
0.943814
-0.415965
-0.760766
-1.21264
0.403362
-0.11154
1.00549