<VTKFile type="UnstructuredGrid" version="0.1" byte_order="LittleEndian">
<UnstructuredGrid>
<Piece NumberOfPoints="11465" NumberOfCells="22404">
<PointData Scalars="abs_IR_ur">
<DataArray type="Float64" Name="real_part_IR_ur" format="ascii">
0.43283
0.231552
0.603274
-0.194067
-0.309211
-0.237497
-0.0511069
-0.145131
-0.219568
0.578284
0.43744
0.398788
0.0370752
-0.316076
-0.182924
0.552754
0.281929
0.55565
0.145466
-0.19745
-0.393694
-0.0801128
-0.13636
-0.0183722
-0.113105
-0.206032
0.0312052
-0.445005
-0.52015
-0.851669
-0.259272
-0.161788
-0.192219
0.80015
1.00627
0.611274
0.554956
0.0591132
0.250226
-0.243319
-0.353344
-0.0214062
-0.0686094
-0.153313
-0.554524
-0.539012
-0.582644
-0.566965
-0.366264
-0.415153
-0.361024
-0.330345
-0.515081
-0.566175
-0.7132
-0.143672
-0.0680387
0.376185
-0.326417
-0.0791963
-0.390653
-0.302442
0.156872
-0.255027
0.0551317
0.0503225
0.372705
-0.449007
-0.124144
-0.761438
-0.310381
-0.199298
0.0201021
0.289516
0.121586
-0.0195815
0.0167059
0.153516
0.450917
-0.053075
0.0119644
0.304083
0.49442
0.518829
0.465228
0.640037
-0.350266
0.667255
0.339959
-0.301398
-0.286778
-0.0190266
-0.00100903
0.697805
0.00362881
0.423842
0.45443
0.332243
0.663678
-0.285019
-0.313578
-0.642693
-0.521664
-0.480187
-0.18562
-0.328084
-0.323445
-0.971086
-0.251765
0.0412035
0.169621
0.0868292
0.366246
-0.327591
0.0396704
-0.419876
-0.478835
-0.264467
-0.32975
-0.420873
-0.618889
0.948384
0.926503
0.920605
0.607196
0.315742
-0.0508732
-0.0894909
-0.157181
-0.187045
-0.309738
-0.138905
-0.784876
-0.329262
0.512835
-0.0430952
0.0405831
0.0346549
-0.437378
-0.418178
-0.521099
-0.781912
-0.53775
-0.928741
0.924453
0.962102
0.614933
-0.216092
-0.246919
-0.333835
-0.697429
0.00222278
0.299156
0.334396
0.601445
0.0177187
0.0524729
0.187866
0.318038
0.135494
-0.993637
-1.00349
-0.742617
0.127605
-0.131376
-0.125607
-0.0771511
-0.181676
-0.679901
-0.436824
0.70959
0.500232
0.720097
0.167751
0.355202
0.37287
0.189118
-0.507059
-0.0366607
-0.37765
0.35254
0.118692
0.482248
0.245592
0.518376
-0.206261
-0.0559857
-0.18606
0.511931
0.719997
0.169254
-0.00213711
-0.329534
-0.268482
-0.296876
0.595739
0.514037
0.516711
0.172076
0.00340801
-0.0755736
0.0782633
-0.468387
1.04711
0.881392
1.03901
-0.578793
-0.650724
-0.668243
0.973818
-0.368
-0.277378
-0.409066
-0.747396
-0.760205
-0.0999625
-0.321427
-0.898828
-0.922174
-0.846463
-0.143847
0.196057
-0.0468713
0.286569
-0.575895
-0.142907
0.469801
0.340735
0.469706
0.255723
0.0328921
0.332202
0.450462
0.470094
-0.200163
-0.122909
-0.173128
0.225456
0.869245
0.226428
-0.163071
0.496635
0.0861241
0.134582
-0.00427438
-0.734358
-0.656131
-0.822406
-0.602064
0.1436
-0.289345
-0.123943
-0.0906634
-0.0895608
-0.679864
-0.317396
-0.589414
0.636625
0.667265
0.980431
-0.110572
0.156802
0.30171
0.486199
-0.00074678
-0.0964864
0.334707
0.802228
0.98916
0.656508
-0.143702
0.536498
-0.0745488
-0.286403
0.404707
-0.452659
-0.641701
-0.15498
-0.578347
0.0171477
0.0993748
0.329599
0.292306
-0.244222
0.0642466
-0.492672
-0.252532
-0.725567
-0.521835
-0.0441557
-0.618635
0.285068
-0.575567
0.252279
-0.094163
1.06028
0.798903
0.979064
-0.285022
-0.226768
-0.261519
-0.522261
-0.530744
-0.467518
0.29705
0.0443765
0.545742
0.133553
-0.112136
0.585889
-0.370069
0.619984
0.111609
0.364489
0.295239
0.231083
0.632994
0.999666
1.01246
-0.175107
-0.487438
-0.656059
0.0892952
0.609063
0.993016
-0.556981
-0.261164
0.658876
-0.6173
-0.589043
-0.539473
-0.706859
-0.976273
-0.821381
-0.54843
-0.00784024
-0.824751
-0.373154
-0.406836
-0.392188
-0.177426
-0.0707216
-0.441945
-0.487666
-0.415365
-0.303912
-0.458949
-0.282794
-0.0696628
0.188918
0.625095
0.980605
0.831511
0.487402
0.236399
-0.626603
0.250622
0.377132
0.0865845
0.122106
-0.238155
0.203427
-0.322495
0.116598
0.89865
0.823704
0.789489
0.590483
0.495374
0.567095
0.0565256
-0.0417863
-0.253921
-0.142668
-0.0102011
0.0637766
-0.0634883
-0.466728
-0.415814
0.632141
-0.391348
0.242266
-0.140331
-0.280127
-0.0502136
-0.274028
-0.00784152
0.577186
-0.252334
0.205445
0.349305
0.665701
-0.230393
-0.954831
-0.755274
-0.913872
-0.321133
0.400194
0.0332736
-0.123949
0.0293926
-0.34478
0.141624
-0.632785
0.0687915
0.153132
0.209649
-0.0626099
0.0924276
-0.355775
-0.983559
-0.974724
-0.96381
-0.328719
0.438056
0.223932
-0.135337
0.322254
-0.413472
-0.379751
-0.364961
-0.293472
-0.577934
-0.531512
-0.00815747
0.424
0.42199
-0.408776
-0.230592
0.340861
-0.320987
0.014214
0.450706
0.175607
0.782227
0.64321
0.702586
-0.0291393
0.311183
-0.434998
-0.246447
0.333251
0.413838
0.377913
-0.567849
-0.598045
-0.522666
-0.375574
0.0868892
-0.0787681
0.157408
-0.46435
0.367299
0.161807
0.440189
-0.190767
-0.995857
0.325335
-0.188454
0.496303
0.0811058
0.363468
0.14217
0.493749
0.518371
-0.139217
-0.0979102
0.366318
-0.686787
-0.488971
0.364758
-0.0475552
-0.109885
-0.517708
-0.0241733
0.0159132
-0.133061
-0.288469
0.331267
0.49267
-0.35613
-0.361141
-0.0138718
-0.469171
0.0738254
0.27744
0.0495893
0.4271
0.025464
0.2898
0.12155
0.3223
0.422706
0.329341
-0.517947
-0.0943034
-0.409683
-0.299881
-0.366642
-0.692813
-0.849282
-0.325783
-0.465597
0.208809
0.679388
0.67564
-0.396983
0.170287
0.139151
0.348503
-0.250821
-0.0136698
0.988157
0.288057
0.214021
-0.168539
0.229395
-0.195563
0.142906
-0.72287
-0.996977
-0.999837
-0.840248
-0.487158
-0.61596
-0.795393
0.417803
0.0593477
0.237202
0.577243
0.419279
0.555401
0.380178
-0.0243427
0.0815875
-0.295468
0.613037
0.338163
-0.073337
-0.288915
0.102529
0.224301
0.341198
-0.911459
-0.913694
-0.987666
0.261695
-0.0259789
0.465154
0.324348
0.641835
0.385575
-0.122789
-0.750005
-0.630861
-0.591228
-0.247401
-0.687224
-0.399783
-0.418643
-0.511634
-0.303445
-0.225071
-0.121615
-0.505083
0.391342
0.42068
0.272045
0.616116
0.441942
0.631542
0.0900526
-0.462176
0.128749
0.217252
0.259128
0.435796
-0.681048
-0.886632
-0.98582
-0.736384
-0.702764
-0.627998
1.01159
-0.565556
0.540767
0.401926
-0.960762
-0.484863
0.624098
0.602684
0.955605
-0.151142
-0.92955
-0.932047
-0.0624059
0.405222
0.28336
-0.352781
-0.613437
-0.751263
-1.0127
-0.979518
-0.791421
0.177562
-0.141775
-0.563983
-0.456498
-0.285547
-0.303311
-0.318143
-0.027209
-0.314528
0.0638519
0.0242811
0.117273
0.0911411
-0.342582
-0.00609091
0.359446
0.600453
0.390893
-0.251106
0.36932
0.39665
0.102365
-0.963313
-0.624978
-0.954277
-0.233268
-0.784311
-0.118661
-0.706407
-0.987203
-0.523389
-0.596635
-0.152775
0.150575
-0.811518
-0.989519
-0.975737
-0.1115
-0.0316785
-0.711452
-0.182645
0.666711
0.117867
0.109076
-0.0165535
-0.228558
-0.372367
0.497294
0.514616
0.405092
0.512116
-0.920716
-0.392788
-1.02045
-0.474334
-0.154497
0.0451383
0.631728
0.884803
0.992515
-0.256167
-0.115804
-0.564428
-0.0479048
0.553296
0.309078
0.573986
0.428602
-0.17752
0.157073
0.242875
0.157328
0.315705
0.506132
0.327555
0.463575
-0.197215
0.118055
0.251685
0.629561
-0.738577
-0.123683
0.699113
0.208828
0.199406
0.199975
-0.285401
0.515452
0.289478
-0.298275
-0.00279927
-0.340341
-0.329189
0.110029
-0.254547
0.179736
0.0473515
0.118752
0.376333
-0.487947
-0.354791
-0.17019
-0.739904
1.00583
-0.293685
-0.543103
-0.216861
-0.0319523
0.150847
0.435783
-0.849125
-0.664415
-0.794851
-0.19565
0.403992
0.281921
0.117229
0.0614447
-0.530869
-0.640338
-0.519844
0.328039
0.448246
0.54672
0.291241
0.435614
0.426589
-0.230243
0.0665471
0.152043
-0.050017
0.775224
0.77359
0.842419
-0.440952
-0.254098
-0.461447
-0.1577
-0.0910445
0.241785
0.202605
-0.100643
0.0411871
0.14411
-0.165846
0.241441
0.637866
1.02994
0.542931
-0.136149
-0.309109
-0.697354
-0.728466
-0.797135
-0.901732
-0.812567
-0.978471
-0.981055
0.484795
0.493958
0.617723
-0.682688
-0.705674
0.465543
0.554565
0.350636
-0.550141
0.973868
0.926753
-0.625218
-0.29022
-0.467628
-0.490333
-0.743254
-0.767558
-0.444289
-0.0362035
0.43952
-0.652709
-0.0763625
-0.634081
-0.416323
0.139223
0.221081
0.145377
-0.162459
-0.218866
-0.697836
0.507264
0.471736
0.495969
0.52009
-0.0297256
0.580102
0.189524
0.862858
0.847816
-0.956341
0.701823
0.748557
-0.826865
-1.1168
-0.244361
-0.306362
-0.280426
-0.155179
-0.416727
-0.0191865
0.351834
-0.839966
-1.01753
-0.77275
0.738945
0.4329
-0.746069
-0.58883
-0.738669
0.0809506
0.0504832
0.138171
-0.72793
-0.303887
0.0823542
0.0366353
0.325976
0.305264
0.198462
0.447087
0.592426
0.287368
0.35671
0.317219
0.741338
-0.207407
-0.0395111
0.0581873
0.678444
-0.0240224
0.0288121
-0.0566829
-0.146516
-0.418653
0.523964
0.457649
-0.511876
-0.508855
-0.452671
0.550775
0.566249
0.734066
0.402347
-0.376998
-0.0306074
-0.252336
0.812729
0.836541
0.567477
0.5713
-0.0358544
0.25785
-0.400974
0.283614
0.253748
0.00433907
-0.529753
-1.05732
-0.604694
-0.748628
-0.557833
0.29339
0.341645
-0.169642
0.707177
0.190994
0.763388
-0.448886
-0.508881
-0.0975167
0.0315412
-0.501311
-0.212971
-0.128477
0.589221
0.357137
0.410112
-0.745021
-0.603902
-0.231342
-0.634273
-0.183049
-0.122423
-0.0672372
-0.953391
-0.98323
0.0301644
0.571666
-0.68797
-0.734899
-0.47084
-0.828845
-0.542362
-0.618443
-0.259809
-0.673992
-0.521136
-0.00443792
-0.424723
-0.375035
0.10554
-0.255666
-0.111795
0.258869
-0.82886
-0.356355
-0.924035
-0.985327
-0.999494
-0.742891
0.827428
-0.474051
-0.415739
-0.0257749
0.765405
0.786775
-0.445555
0.744687
-0.300932
-0.140276
-0.588917
0.293323
0.175395
-0.850095
-0.97031
-0.0505203
0.48382
0.502786
-0.469745
-0.261449
0.013219
0.42564
0.0969195
-0.723677
0.851236
0.711533
0.764645
-0.0499744
0.92333
-0.349144
0.563791
0.926457
-0.252003
0.0640667
0.752267
0.349564
0.603495
-0.745149
-0.681122
-0.532882
-0.319243
0.00312935
-0.355096
0.159585
0.0235976
0.550472
0.533718
-0.357082
-0.199288
-0.0748974
-0.0740633
-0.505212
-0.225702
-0.480316
-0.775483
-0.29021
-0.754007
-0.893303
0.289821
0.2409
-0.391652
0.245696
-0.0959294
0.281611
-0.326273
-0.447958
-0.987613
-0.541608
0.450601
-0.716565
-0.631623
-0.5103
0.406394
0.42169
-0.0642227
0.075698
-0.00914374
-0.0291848
-0.0657333
0.834532
0.653691
0.920709
0.447989
-1.03996
-0.427789
-0.137835
-0.0583655
-0.229556
-0.154701
-0.472038
0.116785
-0.338201
0.682262
0.389874
-0.0324872
0.473403
-0.216832
-0.679124
-0.676725
0.401891
-0.461615
-0.501909
0.0566115
-0.00430774
-0.00482521
0.0410524
0.245734
-0.0359367
0.432591
-0.719119
0.784811
0.295261
-0.117995
-0.0626638
-0.17457
0.512082
-0.409204
-0.479979
-0.384217
-0.234112
-0.0571585
-0.0175591
0.05895
-0.0390018
-0.468817
0.233754
-0.269366
-0.325447
-0.648904
0.341229
0.740775
0.553337
0.636363
-0.478618
0.461411
-0.0668997
-0.167879
-0.252018
-0.234611
0.290664
-0.711083
0.208628
0.250623
0.39472
-0.708997
-0.656086
0.670734
0.606994
0.785811
-0.135486
0.376146
0.356165
0.0215893
-0.868402
-0.83091
-0.665615
-0.0231905
0.255068
-0.123599
0.248611
-0.663426
-0.44573
-0.911168
-0.767846
-0.251051
0.00735853
-0.542876
-0.965839
-0.768036
-1.00835
-0.226312
-0.234441
-0.191064
-0.465278
-0.175596
-0.123347
-0.077615
-0.113883
0.329894
0.128882
0.394104
1.01861
-0.882505
-0.350706
-0.812521
-0.562566
0.00857956
-0.164342
-0.150589
-0.419738
-0.340708
0.041135
0.219786
0.177251
0.394784
1.04749
0.839499
0.961988
-0.384121
-0.290091
-0.190341
-0.535249
-0.986302
0.413336
-0.0819659
-0.00434608
0.389987
-0.00845265
0.0800281
-0.788866
0.639998
0.0456195
0.02445
0.143573
-0.02872
0.620865
-0.00259281
0.655766
-0.441278
-0.521016
-0.71467
0.00355743
-0.413524
0.716916
-0.557431
0.380393
0.343058
-0.225833
-0.543472
0.025377
0.425336
0.313533
0.220408
-0.348452
-0.584491
-0.456462
-0.669726
-0.245802
-0.807011
-0.565257
-0.7617
0.0837559
-0.923162
-0.996885
-0.97266
-0.2862
0.0439193
0.126303
-0.653893
0.331133
-0.00112804
1.01036
0.856043
0.990468
-0.257466
0.869238
0.471431
0.971419
0.608269
0.841695
0.510449
0.190798
-0.106407
0.196593
0.792504
0.756833
0.455155
0.669075
0.156798
-0.206307
-0.155753
-0.397375
0.455458
-0.500986
-0.264194
0.449361
-0.795874
0.343131
0.343379
0.44036
-0.634859
-0.642591
-0.553705
0.366135
0.774275
0.390387
-0.353194
0.266735
-0.354821
-0.579525
-0.386418
-0.581978
0.228445
-0.0482852
-0.239319
0.00835127
-0.483877
0.101645
-0.224839
-0.224809
0.419278
-0.0643706
-0.0786334
0.156191
-0.273567
0.132173
-0.210068
-0.127603
0.220697
0.541373
0.683041
-0.351658
0.608967
-0.317421
0.89034
0.307079
-0.709947
-0.457307
-0.6554
0.401986
0.306096
0.708018
-0.586084
0.51338
-0.532242
-0.485891
-0.252145
-0.00650061
-0.214499
-0.526038
0.494108
-0.0237457
0.729151
0.520143
0.708148
-0.0943749
0.0288899
-0.981912
-0.98518
-0.876802
-0.688208
-0.108066
-0.0312387
0.296911
1.02223
0.84995
0.0433492
-0.468474
0.348578
0.211382
0.100218
-0.279549
-0.192868
0.244123
0.751111
0.365091
0.204242
0.244414
0.860786
-0.72027
-0.570327
0.994561
0.53277
0.357582
-0.312806
-0.0799389
-0.143727
-0.524928
-0.287583
0.214423
0.138066
0.190032
-0.336376
-0.35638
0.879121
0.280031
0.901734
0.71208
0.832638
-0.11463
0.285865
0.139088
0.138222
0.256931
-0.495328
0.0462007
-0.0308843
-0.278487
-0.512819
-0.067214
-1.01791
0.134027
-0.0494726
0.0577553
0.243557
0.0641121
0.252187
-0.399672
-0.418168
0.083379
-0.417035
-0.505322
-0.804003
-0.396789
0.128847
-0.0197774
-0.220727
0.352928
-0.177057
-0.0606629
-0.00330787
0.446092
0.105669
-0.0296763
-0.0866598
-0.647596
-0.3567
-0.0372026
0.269509
0.242543
0.227808
0.390872
0.436337
-0.344858
-0.503194
-0.674926
-0.657776
-0.965701
0.42592
0.0578945
0.571909
-0.614896
-0.905013
0.722387
0.488324
-0.618064
0.175688
0.288743
0.749135
-0.012142
0.609666
0.898301
-0.313111
-0.0446691
0.0344569
0.771973
0.243353
0.347772
0.343594
-0.800804
-0.932027
0.485423
0.364111
0.448866
-0.351771
0.612147
-0.0720876
0.271706
0.540472
-0.159781
-0.190359
-0.0655332
-0.929945
-0.733329
-0.11117
-0.224781
-0.150908
0.0292908
-0.951986
0.084999
-0.444819
-0.0399818
0.309548
-0.461111
-0.221138
-0.259569
-0.720001
0.154993
-0.170908
0.0128314
-1.02593
-0.212019
0.185908
-0.52649
-0.0479447
-0.589634
-0.794662
0.0229043
-0.194763
-0.375685
0.391943
0.866195
-0.00602764
0.0592053
0.0871081
-0.353572
-0.214679
0.0489524
0.0256528
0.509482
0.617058
0.278625
-0.121381
-0.0374483
0.27864
0.214483
-0.0303148
-0.248138
-0.722983
-0.989857
-0.952159
0.413841
1.06135
1.07567
0.901782
-0.252184
0.228298
0.0367991
-0.000417617
0.640478
0.0385864
0.202285
-0.0698746
0.401566
-0.0856829
-0.190829
-0.275827
-0.463107
0.216256
-0.326973
-0.193599
-0.0847769
-0.0769551
0.436501
0.331226
0.401832
-0.37422
-0.232658
-0.0941553
0.351946
-0.647589
0.725071
0.449593
-0.0981617
-0.256625
0.012436
-0.0208218
-0.316122
0.241454
-0.218681
-0.0359731
0.292712
-0.083761
-0.2544
0.0510558
0.215273
-0.22348
0.210612
-0.170075
-0.0971704
0.397297
0.2405
0.3321
-0.261861
-0.0790912
0.537237
0.48845
0.848377
0.0102816
0.309899
-0.00657757
-0.777961
-0.274275
-0.135858
0.396373
0.492617
-0.0549887
0.132523
0.810979
-0.770323
0.546351
0.0139338
0.1609
0.214437
0.449594
-0.163264
0.620518
0.284445
0.236798
0.408935
0.184825
0.245733
0.151477
0.219378
0.278721
0.157348
-0.714871
-0.369979
0.473585
0.481394
-0.00319379
0.539305
0.279787
0.132205
0.314919
0.00395798
0.3496
-0.450602
-0.694084
-0.439014
-0.288449
0.117644
-0.151786
0.342685
-0.230687
-0.337562
-0.0685096
0.615726
-0.472783
-0.571627
-0.152209
0.714231
0.860931
-0.581723
0.029623
-0.051712
0.0357577
0.280871
0.270127
0.219503
-0.497665
-0.460182
0.647513
-0.0192155
0.85014
-0.182728
-0.547891
-0.242395
-0.740518
-0.425083
-0.717556
0.0890082
0.330595
0.348781
0.369765
-0.0813376
0.327953
0.296806
0.470461
-0.0916075
0.669496
0.661797
0.145405
-0.00769683
0.983635
0.101019
0.0269881
0.0509885
0.0563792
-0.282701
0.989556
0.817265
0.976427
-0.181452
0.12955
-0.566421
-0.651848
-0.480439
-0.00804474
-0.551656
-0.13608
0.00521903
-0.933988
-0.586626
-0.441737
-0.262597
-0.132277
-0.0927174
0.232373
0.172819
-0.431099
-0.272036
-0.836322
-0.810044
-0.752573
0.523737
0.860091
0.384893
-0.653612
-0.348656
-0.241124
0.0550747
0.953128
0.945213
-0.0739251
0.00446838
-0.601398
-1.05814
0.125169
0.289453
0.126922
0.18099
0.10263
0.99068
-0.487727
-0.217086
-0.724277
-0.768787
-0.252289
1.0688
0.557401
0.357544
0.384622
-0.311338
-0.806176
-0.310174
-0.102049
-0.126074
-0.0151362
-0.667538
0.246928
0.282976
0.835036
-0.191467
0.789627
-0.988255
-0.94774
-0.69556
-0.210388
-0.530297
-0.269669
-0.25743
0.0469664
0.170886
0.238089
0.729938
1.05314
-0.392889
0.780111
0.390196
0.129036
-0.348026
-0.699066
-0.756834
-0.266448
0.315008
0.084909
0.107295
0.288117
0.0851848
0.607743
0.388627
0.328215
0.195328
0.940643
-0.182115
-0.178347
0.0378507
-0.42017
0.0273793
-0.238384
1.01705
0.384782
-0.426252
-0.513067
0.556992
-0.988036
0.491316
0.659669
-0.612521
-0.545974
-0.617895
0.551394
-0.503019
-0.483006
-0.125247
-0.234663
-0.585031
-0.331864
-0.54361
-0.884822
-0.783525
-0.861481
-1.01687
0.116732
0.121328
0.414625
-0.151494
-0.158324
-0.701125
-0.540989
0.238881
0.53356
0.112102
-0.0277136
0.236046
0.524227
-0.291775
0.480655
0.114741
0.303356
-0.0555708
0.05062
0.314511
0.47805
-0.415449
-0.28639
-0.398605
-0.176576
0.168617
-0.385464
0.214906
0.173269
-0.159786
0.971159
-0.0816038
0.351281
-0.0431728
-0.118777
0.370164
-0.0454955
-0.405667
-0.0212856
-0.599794
0.145214
0.174353
0.837369
-0.592356
0.395783
0.702933
0.251511
0.0165209
-0.545388
-0.135897
-0.531574
0.385047
-0.971442
-0.781147
-0.788746
-0.281024
-0.228365
-0.188634
-0.415146
-0.962457
-0.629904
0.12106
0.0675286
0.404953
0.968964
0.850006
0.826464
-0.267535
-0.610791
-0.483372
-0.039
0.367489
0.412799
-0.40152
-0.345732
-0.973133
0.521109
0.230326
0.251913
-0.933019
-0.777536
-1.00551
-0.71978
0.911138
0.386956
0.629148
-0.0929504
-0.452943
-0.43108
0.563011
0.647884
0.516835
-0.743062
0.515096
0.432397
-0.803307
-0.944117
-1.32056
0.322391
0.452095
0.753747
0.167496
-0.834571
-0.842532
-0.892758
-0.885965
-0.990515
-0.838239
-0.120778
0.292935
0.672659
0.97024
0.781481
-0.254184
-0.423985
-0.133838
-0.437738
-0.745894
0.133465
0.37022
-0.361569
-0.372664
-0.367488
0.67324
0.140399
0.363882
0.250236
0.0311473
0.174569
-0.198182
-0.52537
-0.535593
-0.144957
0.0988187
0.0433381
-0.199749
-0.0256301
-0.347794
0.0172013
-0.209355
0.3497
0.820682
0.75087
0.364119
0.548872
0.132952
-0.179035
0.858396
0.926366
0.0734872
0.627444
0.980002
0.18857
0.0839357
-0.45498
-0.481294
-0.770928
-0.451265
-0.444055
0.397513
0.277621
0.158773
0.0643784
0.960092
0.869996
0.902956
0.129906
0.923251
0.369336
0.724206
-0.941246
-0.322584
-0.995799
-0.117645
-0.989023
-0.923285
-0.728374
0.593211
0.677206
0.784877
0.810805
0.0730579
0.358677
-0.0988154
-0.318223
-0.351181
-0.826237
0.494042
0.364329
0.585421
-0.457196
-0.42229
0.734361
-0.262095
0.0472949
-0.236331
-0.191374
-0.272729
-0.988439
-1.02625
0.272478
-0.156578
0.416317
0.282497
-0.297463
0.172769
-0.277711
0.585862
-0.673463
-0.623724
-0.64206
0.327163
0.329241
-0.225867
-0.0390265
0.259745
-0.353511
0.694698
0.146403
0.0125309
0.267804
-0.561866
-0.648413
-0.0345968
-0.357502
-0.804953
-0.909518
-0.811986
-1.14036
-0.132405
-0.52285
-0.109548
-0.405751
0.168409
-0.0885559
-0.140972
-0.313009
-0.014651
-0.0441233
0.200906
0.836479
0.47189
0.433835
-0.241489
0.105326
0.0225916
-0.0552666
-0.458417
0.00978619
-0.0233065
-0.233485
-0.60134
-0.742307
-0.773885
0.64709
0.157422
0.234333
0.172732
-0.843623
-0.671432
-0.365084
-0.0744525
0.332332
0.245463
0.110846
0.449483
0.261192
-0.442289
-0.636969
-0.649411
0.191317
-0.142566
-0.330154
-0.136964
0.0176383
-0.0538611
-0.429391
0.557051
-0.977272
-0.732375
-0.591993
0.326583
0.0642379
0.10095
0.626278
0.956576
0.130634
0.542258
0.324988
0.321184
0.131803
0.374418
0.883417
0.700408
0.489178
1.01873
0.11216
-0.175586
-0.361642
-0.251072
0.139916
0.0124057
0.0875794
0.0221483
-0.145622
-0.0662275
-0.0180122
0.0224253
0.801287
0.119171
-0.266257
0.0233086
0.362769
0.139304
0.63336
-0.18765
0.257427
0.0805081
0.0102214
-0.174858
-0.657193
1.26502
1.0801
1.04645
-0.247234
-0.493454
-0.359601
-0.16293
-0.296091
0.00936546
-0.261307
0.0827061
0.0516521
-0.333041
0.0714429
0.321951
0.672462
-0.111653
-0.16707
0.411156
0.215556
0.21802
0.306577
0.258919
-0.982121
0.821232
0.702127
0.728957
-0.198968
-1.07103
0.61116
0.439471
0.615061
0.609144
0.158856
0.177719
0.410609
0.136697
-0.396512
0.744228
0.591359
0.174882
-0.289223
-0.94033
-0.904243
-0.922059
-0.610355
-0.519664
-0.0761183
0.346337
-0.316624
0.340784
0.41602
0.452735
-0.328759
-0.251183
-0.0947814
0.438814
0.280231
0.467849
0.392931
-0.583868
-0.570937
-0.113606
-0.484504
-0.27622
-0.0787674
0.0663171
-0.579932
-0.816122
-0.941625
-0.700682
-0.729615
-0.750422
-0.366247
-0.186451
-0.514113
-0.278462
-0.261818
0.384057
0.0200103
0.110758
0.134847
0.488031
0.184672
-0.975213
-0.996362
-0.97391
-0.796385
0.949697
0.914136
-0.0317667
0.252535
0.425514
0.139212
0.346008
0.748603
0.59335
0.523223
0.0828015
-0.548586
-0.543434
-0.148731
-0.289799
0.52501
0.302318
0.307901
0.0833793
0.332373
0.195471
0.139589
-0.787892
-0.923784
-0.65548
0.190002
0.0798347
0.370176
-0.684614
0.0997943
0.0203144
0.167878
0.263541
0.546755
0.554566
0.311301
0.769864
-0.839592
0.252466
0.248238
0.71428
0.13185
0.414693
0.443455
-0.0849159
0.406683
0.183613
-0.0969983
0.228779
-0.325179
-0.556299
0.432273
0.341124
0.278262
-0.0674398
-0.389056
0.0413261
-0.764885
-0.823698
-0.01271
-0.312414
1.34096
1.27011
1.16931
-0.228049
-0.582977
-0.243206
0.403786
0.32661
0.475482
-0.699867
0.980025
-0.109912
-0.788798
-0.123728
-0.0717717
-0.973196
-0.0298043
0.280104
0.849201
0.801906
0.771997
-0.157269
0.361896
0.429074
0.0767291
0.130953
-0.611109
0.843323
-0.000204857
0.832271
0.268149
0.271986
0.0898129
-0.130568
0.193741
0.40858
0.393325
0.347138
-0.504636
-0.193098
-0.440016
0.51337
0.586496
0.72495
-0.973725
-0.708184
-0.462863
-0.379409
-0.235209
-0.135715
0.108592
0.234658
0.0514704
-0.413361
0.0405409
-0.313071
-0.263141
0.433884
0.623508
0.631883
0.562421
0.370265
0.44406
-0.992753
-0.0276792
0.0793903
0.192072
-0.0199599
0.363666
0.128805
0.108864
0.00537082
-0.118022
0.220869
-0.0368961
-0.031496
0.0920024
0.868596
0.842302
0.636828
0.464476
-0.0605689
-0.893528
-0.487277
-0.809014
-0.203547
0.598742
-0.0500893
0.366186
0.000178613
0.155139
-0.130205
0.324492
-0.803682
-0.758021
0.0821401
-0.431545
-0.050538
-0.746133
-0.400948
-0.00612191
-0.419832
0.0118688
-0.269452
-0.585296
-0.490139
-0.504364
0.0918261
-0.628962
-0.544443
0.0365631
0.317898
0.0813899
0.0390142
0.31044
-0.574133
-0.164141
0.0306962
-0.361453
-0.719089
-0.339975
-0.333343
-0.343538
-0.321031
0.33242
-0.0134795
0.504763
0.482678
0.477346
0.472397
0.555602
-0.259749
0.337879
-0.0727626
0.279996
0.0989437
-0.587824
0.875465
0.924195
0.805735
0.214433
0.600794
0.438778
0.454464
0.372883
0.975685
-0.121214
0.246994
0.388472
-0.811126
-0.61855
-0.615201
-0.542404
-0.0786014
-0.418148
-0.0843693
0.256437
0.245991
-0.41824
-0.0118807
1.22723
0.801644
1.05742
0.82495
-0.650313
-0.245802
-0.416587
-0.453672
-0.673131
0.400016
0.325523
0.314831
-0.846843
-0.440605
-0.443751
-0.662065
0.500746
0.446931
0.861511
-0.425803
0.463207
0.674595
0.530185
0.0741249
0.333408
0.429456
0.383374
-0.169321
0.52185
0.227017
0.877521
0.999638
1.00185
0.399585
0.712468
0.268952
-0.437681
-0.129746
0.373707
0.443993
-0.0290786
-0.0312983
-0.109071
-0.430751
-0.308727
-0.253757
0.389418
0.0906489
0.094155
-0.385331
-0.31094
-0.289835
-1.14083
-1.43141
-1.03867
0.191138
-0.92506
-1.01725
-1.01605
0.242058
0.328251
0.177021
0.982135
0.911727
1.00699
0.675171
0.982291
0.951599
0.069523
-0.210118
-0.115834
-0.356788
-0.579109
0.202273
0.362665
-0.217184
-0.632264
0.944801
0.250313
-0.00844453
0.400097
-0.365725
-0.393054
-0.0850814
0.237138
-0.338699
-0.132762
-0.104095
0.382797
-0.29607
0.138431
0.339091
-0.92045
-0.491573
0.905078
-0.719295
-0.537653
-0.0215414
0.196725
-0.437205
-0.387544
-0.393194
-0.101728
-0.738267
0.405577
0.211208
-0.0373316
0.258918
0.0018956
-0.351778
-0.156391
-0.294154
-0.275978
-0.345167
-0.321773
0.2897
0.766276
0.456535
1.18313
1.13266
1.10199
0.0704024
-0.562806
0.482884
-0.0908185
-0.316224
-0.149118
-0.255244
-0.292521
-0.0871744
-1.01523
-0.676553
-0.629134
0.196722
-0.137028
0.02944
0.181411
0.296728
0.262202
0.137672
-0.0919095
-0.121812
-0.159807
-0.74986
-0.546849
0.842807
0.507503
0.822099
0.799432
0.269351
0.939049
-0.0945244
0.455634
0.601062
0.663026
0.295062
-0.0611604
0.595221
0.0741524
-0.169567
-0.988368
-0.923929
-0.0828034
0.236971
0.168931
-0.214352
-0.515577
0.3389
0.436159
-0.162339
-0.112138
-0.200813
-0.0197463
-0.185516
0.0605626
0.0298186
-0.167662
-0.57393
0.0454115
-0.451471
0.066534
0.565569
0.316019
0.702294
0.779365
0.718538
-0.815949
0.974061
0.936472
1.01947
-0.228838
0.718729
0.479352
-0.635936
1.09741
0.116862
0.0545974
-0.0989686
-0.407838
0.325504
0.259828
0.499385
-0.351036
-0.0728477
0.0143885
0.394148
0.510529
0.889761
-0.443352
-0.476026
-0.977003
0.062547
0.0489406
-0.352953
-0.19912
-0.164062
0.286181
-0.21359
-0.44709
-1.25763
-1.74823
-1.53069
-0.852384
-0.190501
0.485942
0.232239
-0.333388
-0.138474
0.127957
0.342575
0.131382
-0.1427
-0.388105
0.021646
0.133733
0.17204
-0.131882
0.262394
0.0125922
0.0587975
-0.341861
-0.231358
-0.35358
-0.240858
0.445957
-0.316962
0.521521
0.408205
0.455388
-0.560014
-0.282499
0.00494239
0.530893
0.605086
-0.400338
-0.627547
0.201957
-0.307757
0.088863
-0.0221496
0.40472
0.872603
-0.764604
-0.760831
-0.995059
0.72857
-0.000609232
0.477981
-0.999923
-0.904183
-0.802485
0.362457
-0.893152
0.503935
0.747993
0.613911
-0.00562971
0.393868
-0.412208
-0.455607
-0.646797
0.613647
-0.0785285
0.0320059
-0.404215
-0.0726388
-0.609647
-0.348087
0.340881
0.265822
0.313069
-0.101678
0.377637
0.4681
0.363284
0.598369
0.559014
-0.97063
-0.800977
-0.626927
0.268126
0.328005
0.354673
-0.399105
-0.387735
0.336611
0.972175
0.998679
0.954217
0.0826999
-0.0924795
-0.491937
0.0493951
-0.410972
0.286682
0.0973806
0.562456
-0.823967
0.364454
-0.248255
-0.346152
0.262833
-0.856969
0.27833
0.491009
0.69766
0.99596
0.692982
0.68663
-0.469174
-0.18442
0.00359629
1.19522
-0.534036
-0.128528
-0.244869
0.271805
0.0338959
-0.265582
-0.323657
0.0200984
0.104886
0.778095
0.957909
0.00207814
-0.207362
0.991936
0.991621
0.022428
0.453897
0.584801
0.637295
0.761289
0.615243
0.213207
-0.16864
0.0213405
-0.0012483
0.254214
0.44949
-0.910667
-0.778928
-0.707206
0.240644
0.311916
0.257076
0.919358
0.752681
0.875414
-0.287206
0.0701864
0.35415
0.393007
-0.0133407
0.264151
-0.0387315
0.245389
0.218248
-0.0461094
0.555081
-0.396127
-0.966386
-0.895835
0.455598
-0.546755
-0.583684
0.343349
0.42104
-0.90174
-0.406917
-0.311649
-0.459125
-0.105904
0.15881
0.616906
0.737499
-0.414805
-0.485291
-0.840264
-0.294541
0.564344
0.399288
-0.74189
-0.0906978
-0.0720726
0.500959
0.174959
0.184476
0.269007
-0.529908
-0.40752
-0.495988
-0.992235
0.391524
-0.217048
-0.689421
-0.700131
-0.421726
0.0253277
-0.26434
0.306299
-1.0305
0.294506
-0.178293
-1.0049
0.60124
0.652016
0.706314
-0.352561
-0.435886
-0.0981011
0.259344
-0.318879
0.375733
0.464392
0.699595
0.105172
0.239048
0.299648
0.643061
-0.263851
-0.467657
0.560447
0.691512
0.660355
-0.103229
-0.768094
-0.647647
0.485867
0.561249
-0.0318852
0.0700428
-0.141067
-0.267922
-0.283098
-0.246137
0.41044
0.309257
0.131383
0.631298
-0.812201
-0.76828
-0.837862
-0.458886
-0.79386
0.371544
0.376411
0.335622
0.544722
0.544206
0.467604
0.61646
0.667001
0.541039
0.587135
0.438565
0.0555314
-0.919308
-0.741255
-0.904157
0.420558
-0.130927
0.724228
0.020886
0.0829244
0.507327
-0.502576
-0.875223
-1.00283
0.62287
0.747702
-0.695495
-0.0978372
0.327297
0.417998
0.399088
0.568799
0.15056
-1.63163
-0.685834
-0.135284
-0.223541
-0.228287
0.528053
0.12391
-0.21707
0.816444
0.00354855
-0.187414
0.897753
0.861783
0.988273
0.567468
0.271515
0.991185
0.791898
0.450642
0.554616
0.419163
0.772749
0.820059
-0.459825
-0.391964
-0.470557
-0.442653
-0.402708
-0.0451476
-0.42174
-0.437475
-0.319987
-0.258852
0.926815
0.270666
0.593411
0.920356
0.184455
-0.637841
-0.651841
-0.926796
-0.394684
-0.36961
-0.363263
0.184376
0.089657
0.00967734
-0.301155
0.0890084
-0.547314
-0.229165
-0.0388877
0.0413565
-0.0682437
0.115154
0.244478
0.189078
-0.228656
0.011262
0.15062
0.354083
0.326528
-0.0749654
0.356076
0.018528
0.575006
1.0234
0.89287
0.809746
0.563219
0.263898
0.102736
0.0957677
0.196293
0.160314
-1.01383
-0.786098
0.165314
-0.251735
-0.21736
-0.229981
0.251376
0.413263
0.568812
0.625078
0.508836
0.429818
0.696007
0.274312
0.0966955
0.162643
0.425205
0.0419726
0.320951
0.580805
0.672313
0.134788
-0.546367
0.18872
-0.294078
-0.463879
0.609653
-0.434894
-0.555739
-0.272912
0.880531
0.819457
-0.0735985
0.0344176
-0.320748
-0.715092
-0.74021
0.369792
0.157314
0.0435363
-0.166968
0.539337
-0.274686
-0.887819
-0.201548
-0.318572
-0.0110897
1.11683
-0.920755
-0.48773
-0.330747
0.610016
-0.0397146
-0.349069
0.0254295
0.199648
0.0800679
0.228025
0.260925
-0.285876
0.0684188
0.0137386
-0.428452
-0.521625
0.587839
0.925798
0.111519
0.501927
-0.532029
-0.550381
-0.275663
0.461665
0.513973
0.720555
-0.540633
-0.463074
-0.512552
-0.486055
-0.307463
0.768071
0.670819
0.275007
-0.182462
-0.937557
-0.193361
0.165461
0.453048
-0.0271765
0.588133
0.594028
-0.34474
0.535442
-0.0216241
0.895954
0.94263
0.885795
0.886953
-0.314804
0.430929
0.281327
0.142583
-0.258453
-0.170008
-0.0470354
0.620169
0.623011
0.749263
0.308442
-0.558062
-0.556661
0.273071
0.285582
0.40391
0.822412
0.779552
-0.0930564
-0.0995336
0.228256
0.804064
0.991412
-0.832426
-0.597351
-0.520439
0.56247
0.127974
-0.0339238
0.509616
0.0802585
-0.400647
0.172868
-0.438329
0.0773671
-0.166242
0.236354
-0.112038
0.0321075
0.295518
0.209287
-0.00981292
0.0704401
-0.295955
-0.0769806
-0.12545
0.11591
0.0237079
0.481486
0.102712
0.288369
0.332257
0.0351145
0.155307
0.293109
0.305644
1.01139
-0.944658
-0.220855
-0.0847215
-0.337837
0.256781
-0.444225
-0.389671
0.214525
-0.445871
-0.953909
-0.988756
0.965918
-0.699632
-0.809901
-0.857204
0.464199
0.170084
0.494002
0.394508
0.611652
0.314955
0.32124
0.455538
0.160794
0.455227
-0.309931
-0.618082
-0.29568
-0.0439021
0.156248
0.168769
0.505321
0.58954
0.40669
-0.155217
0.374575
0.463885
0.237717
-0.943023
-0.977561
-0.295894
-0.261652
-0.422524
-0.64886
0.968519
-0.339427
1.19037
-0.483559
-0.776772
0.586143
0.676202
-0.956168
-0.960601