<VTKFile type="UnstructuredGrid" version="0.1" byte_order="LittleEndian">
<UnstructuredGrid>
<Piece NumberOfPoints="11465" NumberOfCells="22404">
<PointData Scalars="abs_term_ur">
<DataArray type="Float64" Name="real_part_term_ur" format="ascii">
-1.4152
-1.14673
-0.77857
0.705362
1.2912
0.85229
-0.107642
0.91885
0.132072
-0.137696
0.49049
0.411512
-0.751276
-0.856008
-0.885374
-1.00639
0.286429
-0.274791
1.0568
0.922975
0.283276
0.536485
-0.431444
-0.577338
-1.12207
-0.756995
-0.176228
1.07275
1.28284
1.32286
0.657688
1.34565
1.02729
0.293922
0.227672
0.258538
0.761233
0.45329
0.808434
0.217551
1.03694
-0.196087
0.721998
1.36254
1.47994
1.45048
1.29629
1.67377
0.834093
-0.509776
-0.145271
-0.112649
0.580589
-0.113404
0.87209
-0.646474
-0.597912
-0.529302
0.311667
1.62709
1.506
1.53776
0.676425
0.473284
0.0977829
0.043598
-0.305862
0.378109
1.00178
1.10317
1.27512
0.905404
0.00386714
-0.279582
0.244305
-0.489648
0.127214
0.635573
-0.351403
0.42624
-0.926673
-0.640214
0.509891
0.0481738
0.116487
-0.168664
0.0532944
-0.212698
0.34692
0.916427
0.066312
0.509069
-0.408102
0.00794491
0.0369613
0.0760755
-0.743655
-0.428431
-0.752268
0.0789008
1.04479
0.762281
0.937818
0.539819
-0.860244
-0.779957
-0.437831
-0.293708
-0.251723
-0.24973
-1.03042
0.121833
-1.09456
0.209761
0.437367
0.8352
1.52509
1.26558
-0.630584
-0.328846
0.849114
0.296852
0.119349
0.221319
-1.06461
-0.608478
-0.798632
1.68599
-0.390254
-0.779115
-0.358298
0.558634
1.23329
1.40754
0.343849
0.757037
-0.322608
0.317708
-0.312138
0.829102
0.199768
-0.124461
0.375053
-0.324582
-0.0563155
-0.106059
-0.125781
1.13495
1.16543
0.883704
0.256582
0.125084
0.347429
0.880084
0.0660503
0.0971878
0.0342514
-0.175787
0.581243
-0.321528
0.832079
1.03817
0.466
-0.324934
-0.11559
-0.495408
-0.650807
-1.036
0.361455
1.59928
0.382854
0.487551
-0.598736
-0.771225
-1.04092
-0.973771
-0.481466
-0.0862872
-0.71869
-0.0764428
0.78727
0.917634
-0.499077
-1.14677
-0.556124
0.20111
0.791465
-0.344103
-0.225996
0.021391
0.603766
0.208672
0.677759
0.58631
1.35904
-0.298892
0.26108
-0.333568
0.80076
0.481515
0.0581718
0.366502
0.659646
-1.25621
-0.81855
-0.90582
1.0096
0.348193
0.274997
0.250266
1.41429
1.37071
0.903562
-0.377083
-0.402248
-0.486058
-0.577067
1.22792
0.915008
0.56376
-0.475794
0.472958
0.336916
0.37826
0.329872
0.757027
-0.273603
0.293944
-0.56723
-0.744482
-0.988432
-1.45616
-1.40191
-1.40047
-0.877784
-0.052262
-0.00898533
-0.350347
-0.0729628
-0.225895
0.56984
-0.345267
0.106877
0.288244
0.735287
1.13895
1.32798
1.04148
0.218553
0.542292
-0.155117
0.947821
0.718218
-0.00281195
0.669389
-0.423352
0.226619
0.0294613
0.101242
-0.0937641
-0.497041
-1.42096
-1.09197
-1.59229
-0.252022
0.0309221
-1.11167
-1.76968
-2.05015
-1.82471
0.947322
0.307637
0.874419
1.26616
-0.972413
0.445662
-0.307004
-0.0378885
-0.386009
0.252157
0.4864
-0.585383
0.511791
-0.938082
-1.28762
-0.941485
0.384803
0.669644
0.483403
0.954415
0.763116
0.0285172
0.419237
-0.0756308
0.407555
-0.515651
-1.01872
-0.368346
-0.352545
-0.378669
0.658552
0.374228
0.406215
1.00847
0.654096
-0.0381663
-1.61618
-1.15018
-0.109849
-0.0381213
-0.0311704
-0.104492
-0.8117
-0.642818
-1.24354
0.651268
0.32502
0.246194
0.292826
1.0893
1.15264
1.14943
-0.0455463
-0.0159571
0.141487
-0.0460868
0.0583365
-0.210918
-0.272902
-0.892015
-0.971831
-0.0390723
-0.153621
-0.16353
0.586771
1.18486
0.406202
-0.428811
-0.368793
1.12902
1.1131
1.03672
0.805054
0.776477
0.0776425
0.560554
1.23679
-0.736551
-1.29928
-1.07599
-0.191245
0.0317152
-0.0502794
-0.147901
-0.661206
0.720293
-1.10798
-0.664701
0.691026
-0.128165
-0.273006
0.80364
1.31367
0.802768
-0.321014
-0.471996
-0.324182
0.412309
0.566441
0.371227
0.90521
0.810985
1.03373
-0.675655
-0.870204
-0.807267
-0.309561
0.299003
1.35706
0.0956124
-0.130443
1.10484
1.03935
0.613566
0.464662
0.625918
1.14703
0.779892
0.67049
-0.583723
0.433993
0.367939
0.338945
0.295502
-0.310445
0.434124
-0.544431
-0.489327
-0.501353
-0.561474
-0.721813
-0.483407
0.986372
0.796571
0.446003
0.978011
0.0198246
0.703841
1.16007
-0.0524491
0.393387
0.187898
0.216846
-0.198864
0.28967
-0.5977
-0.534787
-1.11417
-0.271599
0.483319
-0.617601
-1.20991
-0.164539
-0.918989
-0.879575
-1.34483
-0.902941
0.211498
0.110104
0.118345
0.0485585
1.1373
0.102075
0.826821
-1.76773
-1.65667
-1.36097
0.283796
-0.204293
0.578106
0.0128027
0.341435
1.05186
0.764907
0.521778
0.70781
-0.439391
0.079583
0.53514
0.905185
-0.400873
1.28471
-1.01877
-0.0418754
-1.00109
0.961355
-0.0768146
0.272197
0.4033
0.236238
0.709932
-0.609873
-0.0742226
0.238709
-0.243358
-0.803699
-0.960349
-1.01487
-0.20789
0.0661575
0.783188
-0.451613
0.590194
0.352727
0.368059
0.842614
0.0258692
-0.0609864
0.542102
0.44051
1.08016
1.3066
-0.356074
0.204484
-0.484988
-0.0765376
0.819849
-0.971036
-1.23508
0.250849
0.740161
0.665449
-0.310064
-1.01517
-0.795638
-0.378914
-0.762781
-0.909122
0.400799
0.46668
0.243748
1.24739
-0.48804
0.109766
0.0337815
-0.762051
0.317169
0.412124
0.137813
-1.108
-1.11412
-0.953952
-1.21917
-1.0244
0.0156485
0.0316997
-0.763711
0.695593
-0.290717
0.136215
0.146849
0.130509
0.326011
0.701133
1.25692
0.778418
0.250483
-0.247981
0.851438
-1.54944
-1.58003
-1.35929
0.181474
-0.00739073
-0.135289
0.0117331
-0.167353
0.0541528
0.437727
0.561276
-1.43017
-0.59321
-1.1876
-0.194522
-0.167515
-0.119584
-1.03417
1.23415
0.465896
0.698815
-0.042691
-1.53917
-0.518905
0.306316
-0.368591
0.0873578
-1.10009
0.133804
0.828584
0.110629
1.03477
1.13854
0.836572
0.209975
0.0123663
0.541812
0.4887
0.705796
-0.381496
0.69456
-0.331288
-0.45474
0.337847
-0.290433
0.69812
-0.420916
-0.939311
0.83777
0.214937
0.420617
-0.219857
-0.46488
-0.106891
0.29545
0.408902
-1.2397
-0.486026
0.181789
-0.189731
0.187446
0.287393
-0.141291
0.424304
0.260674
0.239778
-0.611913
-0.616514
0.503841
0.626907
0.836945
0.924435
0.609004
0.757846
0.364381
0.405072
0.635947
1.39296
0.356235
0.917075
1.27535
1.25097
0.675571
1.40853
-0.231926
-0.932611
-1.03344
0.830363
1.02567
1.29018
0.655179
0.399113
0.671487
0.35304
0.461527
-0.220486
0.671084
0.638759
0.319692
0.474938
-0.203363
1.12434
0.320463
0.153682
0.113928
-0.00261114
0.619963
-0.87775
-1.0082
0.107801
-0.0812043
-0.0173965
0.19615
0.184101
0.121461
1.08224
-0.153378
-0.170398
-0.169213
1.29758
0.950149
1.63624
0.130296
-1.34063
-0.850997
-1.06317
0.110513
-0.0132108
-0.069833
0.583913
0.980067
1.03691
-1.5682
-2.26846
-2.01505
0.608846
0.501531
0.632038
-0.897608
-1.70527
-1.41397
-1.68156
-0.614398
0.375424
0.540359
-0.108109
0.715492
0.396982
-0.208837
0.00617014
-0.415704
-1.24142
0.59597
0.48508
-0.000549212
0.652347
0.0725027
0.356711
-1.22163
-0.911104
-1.02598
0.100079
-0.471635
-0.339307
-0.386547
-0.923732
-0.527077
-1.17178
-0.347495
-0.913993
-0.460851
-0.601496
-1.18418
0.679216
-0.431622
-0.213255
-0.415257
-0.287911
-1.33435
-0.0370222
1.02992
0.759562
-0.703023
-1.08578
-1.2351
0.263114
0.461682
0.0941979
0.875267
-1.23703
-1.07468
-0.717883
1.0059
1.25598
0.680264
0.935792
-0.451604
-1.07424
-0.620873
0.146186
-0.0833525
-0.669116
-0.483657
-0.104757
0.418382
0.0315647
-1.16928
-0.340715
-0.949304
0.144498
0.800078
0.864281
0.566894
0.67235
0.502864
-1.18952
-0.866084
-0.607369
0.458286
0.903639
-0.0742056
0.286723
0.277396
0.182679
-1.05121
-1.01854
-0.341524
0.5453
0.442869
0.301283
0.461551
1.13181
1.06962
-0.863466
-1.43299
-0.774167
0.649327
0.578776
-0.930709
-0.47487
-1.05028
0.289879
0.197023
0.00526144
-0.694808
1.03712
0.158199
0.948271
0.69153
0.638422
0.550636
0.170263
-1.28253
-0.0383948
-0.101069
-0.108901
-0.184642
0.443416
-0.259351
0.569422
0.625592
0.761997
1.25746
-1.14783
-1.55895
-1.50347
-0.0790691
0.142088
-0.364155
-0.0793974
0.0525338
0.180816
-0.0453462
-0.138968
0.733658
1.13358
1.48222
0.813632
1.07633
0.468408
1.12399
1.56358
0.736609
-0.0948384
-0.175582
0.0376771
0.0351668
0.0401473
0.108073
0.91629
-0.102212
0.591283
0.833054
-0.631047
0.371554
0.0783987
1.0329
0.658118
-0.132154
0.309192
-0.623393
0.698618
-0.726926
-0.514984
-0.504238
-1.46098
-1.22937
-1.58231
0.481786
-0.101705
-0.0434403
-0.0824418
-0.596456
-0.843632
-0.066552
-0.168315
-0.051833
-1.48775
0.384636
0.578073
0.158859
-0.375377
-0.386736
-1.13229
-1.26554
0.802326
-0.5963
-0.995504
-0.44752
-0.424076
-0.410159
-0.106069
0.00297791
-0.953183
-1.2876
-0.476422
-0.0448947
-0.715281
-0.560761
-0.352375
-0.315861
-0.415981
-0.0561056
0.0558
-0.598902
-0.44484
-0.0880642
-0.286914
-0.538274
-0.573376
-0.722203
-0.817959
-0.347419
-0.839809
1.63341
0.761302
-0.740261
-0.597627
0.353377
-0.943575
0.124214
0.267839
0.0844855
0.675702
1.33176
0.855575
1.04248
0.0310058
0.0457971
0.969107
0.0177425
0.558449
0.475343
0.648931
1.18355
0.593675
1.54924
-0.720195
-0.666208
-0.617429
-0.416321
-0.528311
1.48039
-0.461118
-0.410691
-1.15997
0.614971
0.137891
0.211878
-0.029228
0.0285424
0.0147244
0.0177673
0.0691427
-0.915646
-0.205886
0.187547
-0.0921225
-0.136622
-0.211181
-1.43389
0.751835
0.84016
-0.681421
-0.80212
-1.16891
-0.0226948
-0.176547
0.717306
0.528348
-0.21933
0.213407
1.26194
-0.232569
-1.03746
-0.491964
1.24724
-1.01865
-0.620392
-0.757786
0.200706
-0.94158
-0.694109
0.107572
-0.231342
-1.03952
-1.04556
-0.224886
0.0814343
-0.553444
0.149299
-0.132197
-0.772277
-0.338678
0.113944
-0.139315
0.069619
-0.461936
0.102078
0.0515197
-0.201726
0.123493
0.852164
-0.542574
-0.166299
0.00669957
-0.400971
0.269635
-0.417526
0.120062
0.614556
-1.14339
-0.896234
-0.941307
0.893415
1.199
0.963277
0.765671
-0.392131
-0.332293
-0.42879
0.0282723
-0.000215163
0.0108825
0.163098
0.244702
-1.02886
-1.06084
-0.966588
0.928971
0.183153
0.714931
-0.762131
-0.44162
-0.902665
0.45999
-0.114729
0.34457
-1.25371
-1.37119
-0.0581765
0.0234456
-0.620665
-0.122502
-0.456985
0.0580166
0.228964
0.969396
0.555714
-0.828185
1.35848
0.466731
0.220241
0.460088
0.403036
0.855271
0.343723
0.3417
-0.55592
-0.954941
-0.649771
0.268281
0.0299205
-1.38974
-0.709197
0.0264258
-0.674142
-0.463992
-1.26338
0.316468
0.114846
-0.0683799
-0.670261
0.311183
-0.343383
0.284475
0.696531
1.52321
-0.295616
-0.873499
-0.831236
0.098867
-0.436124
0.352049
0.324979
-0.536281
-0.147562
0.413574
-0.423555
-0.804193
-0.34457
-0.997926
0.358658
0.0623449
0.228374
0.246647
-1.34245
-0.419203
-0.290693
-1.07677
-0.895192
-0.344479
1.12235
0.232228
-0.458098
-0.359473
0.399356
0.440521
0.547496
-1.18884
-1.16646
-1.18777
1.17903
1.01887
-0.396514
0.225556
0.0833945
-0.672568
-0.555121
0.324175
-0.185022
-0.172399
-0.193309
-0.9843
-0.56007
-0.353071
-0.938365
0.856723
0.442243
0.73244
-1.39895
-0.933163
-1.1871
-0.162897
0.270307
-0.314675
-0.493905
-0.397941
0.315387
-0.0502519
-0.28914
-0.310509
-0.416045
-0.164826
-0.447883
-0.382962
0.458412
-1.43105
0.380323
0.123528
0.290937
-0.537591
0.470755
-0.870862
-0.284547
-0.311654
-0.343699
0.0178133
-0.120629
-1.14088
-1.00639
-0.53514
-0.00987382
-1.55493
-0.0868663
0.294502
0.463533
0.989121
-1.09582
-0.514491
-1.61526
0.608393
0.536222
0.866085
0.200833
0.668782
-0.683859
0.897343
-0.713031
-1.19428
-0.848545
-0.52294
0.108971
-0.584922
0.133761
-1.05237
-0.187752
-0.406533
-0.590098
-0.212034
1.08627
0.188574
-0.322752
-0.172427
0.909804
0.874835
0.134366
0.549254
-0.811097
-0.875451
-1.19919
0.390391
-1.40466
0.47326
0.396958
0.344918
0.280659
-0.0146352
-0.231755
-0.28163
-0.200822
-0.447053
-0.46037
-0.406796
0.721738
0.692893
0.608447
-1.3082
-1.41147
-1.14793
0.138186
0.85687
0.360026
1.12615
0.531551
-1.04795
0.957479
-0.883415
-1.10645
1.21498
-0.753121
-0.589021
-1.41599
1.31781
1.44206
1.14358
-1.38554
-0.172679
0.113897
1.26973
-0.208003
0.776599
0.1432
0.898243
1.42282
0.182617
0.642216
0.754842
0.775275
0.139188
-0.817193
-0.808901
1.03699
-0.129599
0.438068
0.341332
0.62582
0.352955
-1.10113
-0.819276
-0.582132
-1.41504
0.269216
0.0366566
-0.150013
-0.0382842
-0.0676416
-0.314085
0.585829
0.0095979
0.535509
-0.160762
-1.58603
-1.41989
-1.84258
0.631817
-0.967872
-0.605277
-0.993681
-1.11231
0.537904
-0.010725
0.703439
0.547134
-0.0328566
-1.08537
-0.213197
-0.0881856
0.530648
0.940554
-0.0824804
-0.0876647
-0.160702
-0.597924
-1.14557
-1.08111
-1.11324
0.403759
0.344029
1.17302
-0.205185
-1.23333
0.752899
1.05347
0.519031
0.922926
-0.283911
-0.479558
0.52954
0.794603
0.344718
0.267324
1.00675
0.00126535
0.140395
0.00554919
-1.36653
0.469404
0.191826
0.847068
1.54162
1.42324
-0.257825
-0.40533
0.36726
0.938247
0.317541
-0.181589
-0.374565
-0.108753
0.125671
-0.116388
0.630947
0.0873864
-0.369196
-0.642213
-0.0106542
-0.135496
-0.0884123
-0.536755
-0.466595
-0.510874
-0.502638
-0.195085
-0.727032
0.887902
1.13315
-0.428917
0.084363
0.319146
-0.0144922
0.661162
-0.823031
-0.840434
-0.570154
-0.066532
1.22298
0.603141
0.85454
-0.180677
-0.918097
0.367918
-0.386677
-0.229589
-1.2117
-0.599764
-0.873019
-0.0347806
0.59193
0.305085
-0.811428
0.444352
0.689796
0.719145
-0.429289
-0.228491
0.234355
0.549634
0.390323
0.269328
0.263558
-0.367816
0.130271
-0.563126
1.36836
0.97431
-0.594175
0.17443
1.06674
-1.18549
-0.985793
-0.0749961
-1.19622
0.116141
-0.658477
0.185973
0.506305
0.873621
-0.214288
-1.27616
-0.905679
-1.42241
0.0723767
0.0022485
1.09181
0.731493
0.926702
-0.359931
-0.330953
1.01065
-0.209801
-1.53901
-0.747091
0.113132
-0.0227957
-0.0264443
0.073745
-0.458019
0.0187619
-0.412369
-0.720656
0.143694
0.313351
1.171
0.928098
0.850024
0.351426
1.24
1.29261
1.37288
0.964468
1.28935
0.323826
-0.224272
-0.178757
0.231165
0.213602
-0.0685968
0.453248
0.460467
-0.85569
0.363556
0.267734
0.259745
0.362565
-0.646294
-0.832327
-0.599222
0.940305
1.3397
0.447778
-0.562491
-0.965268
-0.162475
-0.462229
0.168743
-0.457857
-1.25238
-1.06556
-0.357462
-0.410067
0.0252753
-0.0268717
0.00826852
0.472094
-1.95755
-1.93426
-1.89157
-1.05771
-0.352861
-0.666232
-0.888821
-0.177224
0.818685
0.363508
-0.917896
-1.39685
-1.04018
-0.0300821
1.11801
1.14538
0.482422
1.02644
0.24969
0.0944376
0.0292476
-1.363
-1.49425
-1.11336
0.326881
0.216557
-0.56331
-1.04118
0.166201
-0.349062
0.390228
0.351858
-0.479042
0.334896
0.684996
0.97094
-1.16105
0.226677
-0.755295
-1.29359
-0.506614
0.942754
-0.426051
-0.76578
0.118963
-0.645457
0.634074
1.16546
0.851421
0.898318
-0.882831
-1.07755
-1.20262
-0.598491
-0.55627
-0.674281
-0.557668
0.556173
0.0498329
1.32249
0.372577
-0.190194
-1.55441
-1.71939
-1.3095
-0.89851
-0.741037
-0.354803
-1.05426
0.749156
0.642364
-0.450374
-0.751997
-0.116938
-0.739482
-1.48539
-0.976156
-1.05714
0.781882
0.230497
-0.594365
0.732869
1.19406
1.43343
-0.148248
-0.251458
-1.25908
-1.18618
-0.957679
-0.0756037
-0.717964
0.546786
-0.103215
0.368825
0.239695
0.551878
-0.291878
-0.660113
-0.461647
-1.2542
0.0372417
-0.449171
0.0638636
-0.348825
-0.0299049
-0.632033
0.850163
0.990402
-0.303073
-0.609742
-1.0061
-0.658471
-0.782441
-0.557018
-0.740869
0.557007
0.649085
-0.0452084
0.0937943
-0.1115
-0.246533
0.299347
0.21499
-0.744233
-0.673018
-0.23573
-0.371193
-0.555042
-0.234519
0.131148
-0.769655
-0.73135
-1.38889
0.800034
0.774481
0.460941
0.699797
-0.677016
0.070265
0.108488
0.0992948
-1.11984
-1.47381
0.616729
0.463168
0.598724
0.93916
0.873561
-2.25835
-1.96206
-2.04292
-0.773112
-0.824813
1.3291
1.42208
1.39109
0.300405
1.16857
0.456295
0.712779
-0.176421
-0.200403
-0.790483
1.0159
0.0272583
0.316578
-0.0379301
0.231057
-0.0305081
0.930778
0.640095
0.153472
0.806047
-0.429109
-0.339588
-0.511431
-0.205668
0.623701
0.191718
-0.915743
0.0868453
0.0783192
0.129938
1.11509
-0.364475
-0.28449
0.829855
0.632506
1.05236
1.01782
0.329283
-1.13
0.451418
1.24514
1.15785
1.26061
0.466816
-0.194806
-0.745005
-0.213054
-1.00165
0.666031
0.102008
1.25401
-1.059
-0.529073
-0.757248
0.753777
-0.207336
-0.480546
-1.03542
0.836321
0.0077847
0.726337
0.623035
0.23502
1.10288
0.913895
0.0785784
1.05571
0.763675
0.126281
0.763755
-0.551113
0.167013
1.00852
-0.526392
-0.353083
-0.438615
-0.548313
0.539863
0.603709
0.592175
-1.29477
-1.05761
-0.529628
0.168465
0.621456
-0.109007
0.0904574
0.216773
0.111089
-0.0848269
-0.745291
1.04336
0.182161
-0.742582
-0.731919
-0.87992
0.307321
0.0554365
-0.4649
0.412754
-1.07806
-0.295115
0.170028
0.509575
1.01246
0.0843095
0.30499
0.0556767
0.259747
1.27655
0.0823366
0.0624724
1.38503
0.998667
1.30699
1.0813
-0.311755
-0.21304
-0.162608
1.11892
0.370675
0.4417
0.983147
0.0477561
1.50916
-0.497499
0.208583
0.317837
-0.185599
-0.913485
-1.00269
-0.745428
-0.0855844
0.393924
-0.366174
0.330184
0.509497
-0.25458
-1.13774
-0.975227
-0.22837
-1.30099
-0.989135
-0.924398
-1.20986
-1.06336
0.463998
0.825933
1.16893
0.144366
0.918103
0.537211
0.255978
0.999427
-1.34789
-1.3591
0.076477
0.0128865
0.0496239
0.159215
0.0615847
0.268764
0.589242
-0.169332
-0.785779
0.104443
-0.574169
1.2228
1.08662
1.30842
-1.28472
-0.123196
0.0700359
0.0234055
-0.707726
-0.567635
0.987244
0.949849
-0.0739132
0.293671
-0.523945
-0.492159
0.384874
0.0427642
-0.21093
-0.248217
1.10775
0.75547
0.276092
-0.111817
0.524413
0.195733
0.953266
-0.635447
-0.184476
-0.75643
0.430343
0.0490977
0.00830128
0.0638608
0.190507
0.0634153
0.541081
0.913206
0.908856
-0.968292
1.32265
1.58097
-0.463537
-0.847447
-0.437247
1.11283
0.526276
0.775079
1.49083
1.27702
1.37219
0.184838
1.11015
0.648483
0.978881
0.32462
0.914639
0.393083
-0.164429
-0.204784
-0.0804694
0.15486
-1.14429
1.12313
0.692385
-0.43386
0.664028
0.904818
0.813356
0.757225
0.682799
-0.995235
-0.299151
-0.592986
-1.06949
-1.1013
-1.53477
0.905639
0.55559
-1.21526
0.0640078
0.0402488
0.232043
1.0895
0.972576
0.893264
-0.833926
-0.16529
-0.275021
0.643024
-0.727151
0.422743
0.787044
-0.0235988
0.540792
-0.477109
-0.129408
-0.107243
0.493211
0.830371
-1.43115
-1.55728
-0.186684
-0.212787
0.0562224
0.13826
-0.533251
0.371752
0.269196
0.607399
0.759901
1.24142
0.590892
0.969865
1.07334
-0.913746
-1.32564
-1.56835
-1.4584
-0.898277
-2.10707
0.429725
0.417231
-0.0199948
1.24738
0.133944
0.600162
-0.196085
1.59559
0.286375
-0.9968
-0.947723
0.458236
0.485848
0.760884
0.012736
-1.01963
0.026774
-0.56583
0.323058
-1.62634
-1.48461
-1.61808
1.2019
1.38374
-0.795427
-0.74022
-1.03657
-0.684021
0.277012
0.011357
-0.0165504
-0.177383
0.369093
1.18192
0.488042
0.259555
1.24203
0.668462
0.665338
-0.624458
0.4701
1.09121
1.48736
0.0225409
-0.0355025
0.0121564
-0.857513
-0.942823
-0.536159
-0.763926
0.779259
0.81601
0.463662
0.381761
-0.142886
0.822651
-0.632454
0.755841
0.7403
0.757425
1.66619
-0.500331
-0.763445
-0.405855
-0.805133
0.804212
-0.884464
0.460473
0.511385
-0.487977
-0.490178
-0.93949
0.4031
-0.554802
0.0527288
0.802321
1.16688
-0.237369
-0.315984
0.23925
0.176565
-0.43945
1.01534
1.50663
0.709329
1.20112
-0.191466
0.420218
-0.127319
0.747139
0.649701
0.796614
0.509949
-0.792168
-0.962411
-0.961557
-0.273356
-1.13508
-1.21859
-1.03846
-0.335074
-0.313474
0.651104
-0.153108
0.959345
1.12511
0.816928
1.19955
-0.189769
0.095963
0.00711434
0.0804347
0.117518
-0.627186
-0.669864
-1.05532
0.39244
-0.186662
0.25379
0.662977
-0.0189252
0.339086
-0.811207
-1.24809
0.0883071
-0.0916839
0.48752
-2.40896
-0.468612
-0.647903
0.507808
0.120435
-1.11301
-0.822644
-0.518984
-0.369668
-0.775979
0.865685
0.751054
0.549861
-0.065199
-0.494092
-0.091901
-1.08567
0.494395
0.984577
-1.31119
-0.0377435
0.488933
0.808239
0.906614
-0.0774069
0.315229
-1.51388
-1.79256
-1.30015
0.482755
0.16728
1.20652
0.529548
-0.199307
0.515606
0.511077
0.734795
0.861879
0.372861
0.390346
-0.993318
-0.0184564
0.635713
0.0184104
-1.28769
-1.39507
-0.767594
-0.475923
-1.07131
1.13161
-0.335676
-0.359791
0.0645453
-0.48795
-0.350866
-1.65038
-0.262384
-0.511555
-1.21624
-0.00300692
0.533461
0.366798
-0.830658
-0.996738
-1.72549
-1.3662
-1.07116
0.909599
0.0818762
-0.222205
-0.113092
1.34361
1.41823
1.05515
-1.51141
0.14801
-1.30864
-1.12073
-1.35613
0.97808
0.973867
0.951272
0.764846
1.05508
0.502118
-1.48634
-0.690705
-0.866436
0.70676
0.759532
-1.12162
0.806547
-0.169406
0.395568
0.927165
0.425963
0.133315
0.140863
0.297466
-0.970979
0.0847608
1.06921
1.35219
0.924502
0.280065
-0.816922
-1.01979
-0.363338
0.225116
-0.784751
-0.0969167
-0.242641
-0.224917
-0.126179
-0.0329759
-0.0764996
0.0938924
-0.0934467
-1.22436
-1.28024
-1.14502
-1.35733
-1.50117
-1.38466
-0.2874
0.0955094
0.0309096
0.0577247
1.274
-1.16771
-0.820171
0.571424
0.674036
-0.214586
-0.43712
0.674273
1.06567
1.15858
0.796757
-0.551555
-0.74807
-1.30312
0.858922
-0.537295
0.431864
-0.423025
-0.399563
0.38091
0.47693
0.932766
0.20678
0.0278996
0.92977
-0.0154446
0.253088
-0.500414
0.201014
0.551304
0.855123
-0.971454
-0.861737
-1.00555
-1.15303
0.165493
0.11403
-0.965702
0.236823
-0.531361
0.250398
0.425528
0.643979
-0.483965
-0.357365
0.753345
0.292925
-1.00924
-1.20339
-0.748899
0.0714567
0.491623
-0.0710713
-1.00582
-0.0361347
-0.66566
0.19717
-0.0733613
-0.130732
0.0683428
-0.606648
-0.651716
-0.199565
-0.764809
0.453963
-1.31239
-1.59113
-1.19148
1.08621
0.611575
-0.0668986
0.990056
-1.08016
-0.87216
0.204991
0.0106659
0.10884
-0.678204
-0.795274
-0.640314
0.305159
-0.951363
-1.45276
-0.804318
-1.40847
1.11629
0.533036
0.782357
0.76874
0.417039
0.572944
1.27586
1.54809
0.744261
-0.728454
-1.10521
-0.956736
-0.486344
-0.667056
0.0862508
-0.206764
0.77362
1.17879
0.583218
1.04158
0.82368
0.658944
-1.37943
-0.444298
-1.35505
0.442174
-0.940127
0.090664
0.411626
0.925291
0.484247
0.378844
0.461501
-0.271325
0.839352
-0.0549866
0.0924289
0.061413
0.834208
-0.723432
0.48084
-0.198303
0.503954
-0.255436
0.218028
-0.295975
0.306829
-0.275411
-0.928043
-0.862847
-0.542203
-0.110211
1.13121
1.34564
0.88005
1.03433
0.876003
1.3615
1.62846
1.39706
0.702347
0.586984
0.721583
1.05673
0.626335
1.16352
0.35467
-0.277882
-0.28772
0.854883
-0.492095
-0.548922
-0.29652
-0.371354
1.11116
1.056
-0.290334
0.415315
-0.698759
-0.298958
-0.646271
0.0562579
-0.718806
-0.710418
-0.583622
-0.891595
0.659152
1.06144
0.391206
0.123422
-1.58724
-1.46574
-1.18491
-1.05575
-1.18873
-0.487551
-0.0788502
-0.594397
0.0248331
-0.609315
-0.566623
-0.66806
-0.254077
0.415983
-0.609461
-0.57879
0.457712
-0.18889
0.267416
-0.698916
-1.10487
1.69291
1.55022
1.16001
0.515791
1.09228
0.522556
0.682711
-0.545798
-0.245798
1.50107
1.00777
-1.6427
-1.42304
-1.10417
-0.201987
0.116776
-0.534509
0.617612
0.469097
0.814008
0.223034
-0.37002
0.18778
1.36607
0.529727
-0.339399
-0.14182
-0.629994
0.0236078
-0.0562179
0.810385
-0.517658
-1.18419
0.84151
0.64934
-1.12219
-1.15295
-1.27226
-0.861162
-0.375905
0.239948
0.0446352
0.210424
0.280481
0.657433
0.0982593
0.541401
0.110037
0.541667
0.913417
0.878475
-0.521494
-0.159944
-1.09797
-0.570618
0.285316
-0.19071
0.791938
1.1777
-0.475307
1.06992
0.37624
0.502267
1.09183
0.965201
0.337733
-0.974828
-0.0845029
-0.204664
-0.240829
0.625094
0.596997
0.869289
-1.31238
-1.86191
-1.99899
-0.071273
-0.11323
-0.0893077
0.825823
-0.164679
-0.747894
-0.203322
-0.696332
-0.0841643
-0.0214671
-0.924492
0.992851
-0.298642
-0.370395
-0.346748
0.476289
0.209065
-0.360789
0.416342
0.697817
0.926542
0.641203
0.657767
-1.57854
-0.12936
-0.207331
-0.928692
0.0283638
-0.373097
-1.4078
0.570667
0.444932
-0.985832
-1.11307
-0.281769
-0.431014
-0.480657
-0.677635
-0.135288
-1.00391
-1.44396
0.466106
-0.798382
-0.482153
-1.02962
-0.131949
0.343066
-0.417455
-0.351411
0.479369
-0.00790459
-0.781673
-0.488092
-0.0307816
0.123369
0.655229
0.202174
1.25768
0.429286
-0.840252
-0.833761
-0.940998
-0.506533
-0.89092
-0.421239
-0.222089
-0.148172
-0.0194406
-0.890525
0.0830052
0.989808
0.852727
0.530309
0.0148941
0.455375
0.821037
0.835969
0.833353
0.48634
0.339708
-0.942156
-0.798635
0.246589
0.0809643
0.00413172
-0.0998317
-0.658781
-0.531298
-0.924522
-0.843312
-0.885871
0.185622
-0.03248
-0.254061
0.511977
-0.19269
-0.239398
-0.86982
-0.874918
-0.588002
-0.66926
-0.264727
-0.803233
-0.722989
1.30652
-0.436368
1.01712
0.153655
0.457191
-0.53656
-0.33163
1.14135
0.132447
-0.215664
-0.125526
-0.00822051
0.279016
-0.362193
-0.852555
-0.589356
-0.785113
-0.0516664
-0.402657
-0.00151171
-0.648939
0.826408
-0.439186
0.369974
1.40564
0.582303
0.0776078
0.655282
0.879435
-0.36401
-0.241147
0.528982
0.101999
-0.474671
-0.915011
-0.625674
-0.128339
-0.000711503
-0.0902577
-0.354447
-0.422824
-0.325786
0.461973
0.101122
0.0592653
-0.0742686
0.884452
0.473574
-0.0657452
0.396704
0.699602
0.27231
0.837218
0.56435
1.32017
0.966163
1.00343
1.13032
0.366278
-0.976897
-0.15662
-0.351368
1.05369
1.57011
0.701139
0.0632898
-0.499273
-0.483698
-0.986167
-0.986703
-1.24593
-0.606997
-0.754933
-0.25816
1.09464
0.25396
0.706598
-0.657979
-0.242884
-1.15911
1.60834
0.826613
-0.387665
-0.362146
-0.193644
-0.410438
-0.193708
-1.19833
-0.905936
-1.37181
1.12133
0.770085
-0.5163
0.146142
0.150369
0.140605
-0.121861
-0.220555
-0.0628589
1.32086
1.1908
1.27402
-0.0548507
-0.0488268
-0.17834
-0.818871
0.0805257
0.216035
-1.08438
1.33149
0.557062
1.51398
0.265746
1.07635
-1.37229
-0.910628
0.538273
0.363112
1.04994
-1.02459
-1.32317
-1.27394
-0.955463
-1.40318
-1.49374
-1.22784
0.928595
0.0676266
0.104597
0.608181
0.41418
0.567543
0.0351951
0.61965
0.88384
0.147075
0.518442
0.0356244
0.244316
0.259241
0.16343
0.336954
0.425016
-0.0631088
0.265755
1.0963
1.18018
0.484305
0.568344
-1.53436
0.475194
-0.390847
-0.388763
1.01253
-0.363655
-0.426116
-0.464257
-0.0329961
0.294015
0.214877
-0.720653
-0.20539
-0.455263
0.428113
0.446431
1.04019
1.18553
1.06774
0.671192
0.923205
0.21114
-0.841969
-0.414328
0.0381815
-0.143131
-0.789709
0.967606
-0.015721
-0.177558
-0.531167
0.3919
0.463851
-0.537287
-0.656576
-0.571255
-0.809135
0.0195058
-0.859389
0.683593
0.0156659
-0.0585643
1.0864
0.544585
0.526825
-1.25197
-1.04877
-1.14999
-0.513773
0.264045
0.177626
0.158931
0.59988
0.260925
-0.394772
0.910174
0.513165
-0.118921
-0.12469
0.608358
-1.23298
0.142664
-0.0649245
-0.0514191
-0.30438
0.255838
0.322319
0.888621
-0.249951
0.781863
-0.279355
0.11933
-0.533873
0.0103404
0.573061
-0.918589
-1.12074
-1.00811
-0.57154
0.11643
-0.350926
-0.420475
-0.272729
0.169515
0.165415
0.517853
0.851216
-0.666483
-1.01798
-0.106403
0.711201
0.48746
0.890267
0.894645
0.0817611
0.831046
-0.571986
-0.441313
-0.315002
-0.665682
-0.871361
-0.616547
0.521653
-0.197438
-0.562292
-0.424751
0.218295
-0.437391
-1.31606
-0.562783
1.1322
1.40438
1.09074
-0.732018
0.185681
-0.277838
-0.423522
-1.0048
0.453529
-0.549092
-0.682156
-0.669387
0.159686
0.571993
-0.43185
-0.750568
-0.716344
1.14151
0.588116
0.474982
-0.282478
0.212079
-1.15655
0.0111481
-0.72084
1.04237
1.06979
1.17882
0.256296
0.763719
0.342253
-1.47775
1.53716
1.35926
1.28066
1.58456
0.502221
-1.26685
-1.36228
-0.928717
0.190654
0.0589471
-0.690755
-0.987952
-0.918167
0.556966
-0.0759646
-0.621893
-0.299976
0.338205
0.532004
0.289205
-0.361233
0.127587
-0.735149
0.546785
-0.940421
-1.39721
1.44927
-0.326968
-0.163174
-0.792954
-1.25825
0.793923
0.408572
-0.421694
-0.00606404
-0.115361
-0.728095
-0.156772
0.123615
0.0261491
-0.53595
0.383528
-0.616509
-1.39459
-0.0846749
-0.0590112
0.159929
1.19673
1.2002
-0.779656
-0.476574
-0.208391
-0.528396
0.764353
-0.173227
-0.110178
-0.362073
-0.675007
0.571469
-0.205909
-0.149371
-0.0706549
0.706207
0.732535
-0.3495
1.23895
-0.436033
1.32025
-0.661313
-0.623789
-0.0383428
-0.000685839
-0.715717
-0.254792
-0.176861
0.333503
0.0233211
-0.132785
0.240626
-0.822987
-0.347443
-1.01665
-0.776632
0.022137
-0.61607
0.314404
-0.916977
0.776041
-0.850475
-0.508154
-0.611102
-0.345469
0.333847
-1.17152
-1.20195
-0.0210859
-0.421084
-0.533716
0.327382
-0.504835
0.499622
0.79306
-0.0339732
-0.0493768
0.494051
0.431172
-0.395686
-0.490029
-0.113707
0.321961
0.102055
0.873195
0.0709208
-0.226502
-0.27347
-0.740613
-0.609246
-0.670726
-0.235906
-1.29022
-1.44577
0.638267
0.505688
0.554266
-0.520647
-0.627161
-0.49737
-0.0799391
-0.331197
-1.13267
0.604876
0.466611
0.368162
0.355481
0.315417
0.542386
0.0527741
0.105757
0.0753131
0.398212
-0.388142
0.168313
-0.38062
0.743539
0.990787
-0.723862
-0.853212
-0.565098
0.612845
0.618478
-1.03257
-0.696051
0.614251
1.22771
-0.397971
0.80396
1.53643
-0.399123
-0.600731
-0.840824
-0.698061
0.852805
-0.511886
-0.644498
0.434688
0.627596
0.960435
1.09444
-0.331721
-0.972219
1.0332
1.03267
0.821072
0.418642
0.330374
-0.560336
0.426821
-0.221175
-0.162269
1.0156
0.655308
0.302879
-0.0827216
1.15653
-0.00189574
0.132472
0.271315
-0.815647
-0.792322
-0.63857
0.497662
0.00988457
-1.09378
-1.19431
-1.04268
-0.908831
1.54091
-0.949044
1.27006
0.927129
1.3848
0.936643
0.837178
-0.706729
0.333925
0.895347
-0.324894
-0.280736
-0.0102875
-0.707341
-0.0883247
-0.897937
-0.125561
-0.69669
1.08473
0.228524
-0.649054
-0.260987
-0.396581
-0.822146
0.153196
-0.629243
0.7201
-0.659149
0.09747
-0.871385
-0.544808
0.0278116
1.15447
1.06912
0.818093
-0.224103
-0.0889659
1.3501
1.62626
0.181872
-0.591999
0.246634
-1.10182
-1.49552
-0.316341
0.754924
-1.11525
0.0308709
-0.250252
0.0803839
0.708444
0.618064
-0.876607
-1.09164
-1.09146
-0.93885
1.04189
0.795876
0.798053
-0.779071
-1.37428
-0.754209
-0.270242
0.896562
0.0637342
0.545284
0.936662
-0.992255
-1.25458
-0.425601
0.0608031
0.0677541
-0.645877
-0.628588
-0.906303
0.33185
-0.149805
-0.671561
0.412174
-0.53909
-0.299607
-0.177601
0.0838525
-0.119696
-0.0651976
0.367734
-0.507243
0.446513
-1.22727
-0.974997
-1.13614
-1.27229
-1.34129
-0.713331
-0.444556
0.0291887
0.719632
0.72281
0.47739
0.285243
0.582287
0.840246
0.306312
0.116595
-0.126047
0.825663
0.197832
0.844572
0.991372
-0.100561
-0.301612
0.413236
0.541847
0.490908
0.541987
0.732879
0.00700489
0.187255
-0.865284
0.0888205
0.0992873
0.272865
1.79559
1.63048
1.21701
-0.825605
0.153366
0.148458
1.07574
0.817647
-0.267744
-1.39634
-1.4009
0.449659
-1.02708
1.44068
-0.969681
-0.841421
-1.14122
-1.28235
0.947309
0.208361
-0.257288
0.614818
-0.47479
-0.513253
0.348805
0.704495
0.353654
0.727276
0.215992
0.315087
-0.0694978
-0.863515
-0.951224
-0.140606
-0.182458
0.428394
0.488437
0.705468
-0.619545
1.11886
-1.39562
-0.54344
-0.466188
0.142287
-0.0447774
0.159577
-0.2227
-0.559277
-0.0644065
0.00337535
-0.167402
0.203104
-0.635182
0.27532
-0.674906
-0.562849
-0.321316
0.339479
-1.29015
1.40099
0.517268
0.513942
0.472508
0.702275
0.835247
0.161863
0.561298
-0.218913
0.457377
0.924068
0.854608
0.687759
-0.139989
-0.284983
-0.823377
1.22097
1.61731
1.57704
-0.213291
-0.241563
0.82714
-0.99078
-0.00689783
-0.417543
-0.516173