<VTKFile type="UnstructuredGrid" version="0.1" byte_order="LittleEndian">
<UnstructuredGrid>
<Piece NumberOfPoints="11465" NumberOfCells="22404">
<PointData Scalars="abs_term_ur">
<DataArray type="Float64" Name="real_part_term_ur" format="ascii">
-0.558557
-0.703402
0.387161
0.627257
0.633646
0.6651
-0.109092
0.762764
-0.170703
1.05277
1.43254
1.13511
-0.727952
-1.29615
-1.15798
0.255138
0.89805
0.93209
1.07674
0.545754
-0.28419
0.388289
-0.628975
-0.344682
-0.759744
-0.521425
0.320563
0.411436
0.457217
0.127365
-0.0371492
0.834594
0.739018
0.027674
0.00916133
0.0179648
1.51885
0.533693
1.10426
-0.221621
0.370487
-0.28591
0.643514
0.824502
0.30018
0.278675
0.0128806
0.432342
-0.0258344
-1.39582
-0.881852
-0.839445
-0.523761
-1.22554
-0.688453
-0.879671
-0.821732
0.238347
-0.446054
0.886619
0.442561
0.688858
0.98214
0.0511174
0.209705
0.0918972
-0.126703
0.211488
0.840477
-0.228356
0.663862
0.554165
-0.0880705
0.0944912
0.5693
-0.504032
-0.108453
0.93827
0.554492
0.68269
-0.593306
-0.0113799
1.4807
1.04315
1.15247
0.00302394
0.0217762
0.0110378
0.887422
0.45342
-0.373074
0.721644
-0.0702311
0.000812642
0.000618898
0.00148424
-0.372334
-0.221794
-0.304325
0.0330252
0.609234
0.224429
0.465779
0.00305439
-1.18265
-1.32037
-0.910084
-0.0655262
-0.0943382
-0.0612854
-0.683692
0.28607
-0.265403
-0.363589
0.781416
0.114359
0.519517
0.704852
-1.28675
-1.24605
-0.16641
0.0358221
0.0291595
0.033254
-0.138769
-0.286855
-0.177422
0.909195
-0.988591
-1.18575
-1.26709
0.205151
-0.249937
0.65781
1.47696
0.645182
-0.353395
0.210117
-0.893646
0.240386
-0.531351
-1.15532
-0.467155
-1.65818
-0.000734454
-0.00201408
-0.00102205
0.781799
0.66306
0.239739
-1.19225
-0.107452
0.612207
1.12679
0.00170546
0.000956593
0.000721112
-0.0956236
0.960003
-0.340776
-0.0621817
-0.0289939
-0.0960668
0.0322982
-0.222004
-0.437128
-0.772038
-1.1701
-0.0458951
0.559015
1.55898
1.27229
0.799684
-0.679052
-0.581166
-0.502482
-0.00383709
-0.504144
-0.550775
-0.331962
1.17323
1.08001
0.107104
-0.713861
-0.0239984
-0.359028
0.468342
-0.870163
1.11286
1.61674
1.12144
0.332461
-0.20322
0.150795
0.679243
1.0882
1.47273
0.835729
0.789678
0.927112
0.430287
0.961716
0.0524907
0.0491126
0.0883624
0.13071
-0.0405658
-0.675735
-0.888844
0.0447129
0.568827
0.665071
-0.0255553
-0.0361765
-0.0360345
-0.0454062
-1.15897
-0.775212
-1.24416
-1.36705
-0.584896
0.808981
0.359467
0.949635
-0.581697
0.59437
0.0995177
0.53941
-0.167512
-0.404319
-0.963859
-0.659724
-0.378979
-0.323869
-1.15162
-0.0320139
-0.0840128
-0.0388296
0.0114237
-0.0131129
0.317293
0.0602143
0.183394
0.299433
0.991548
0.08009
0.343492
-0.0104641
-0.573009
0.894097
-0.504822
0.862203
0.777533
0.178166
0.0118156
-0.565306
-0.203382
-0.0144173
-0.00854583
-0.0194607
-0.0582328
-0.740788
-0.175555
-0.452511
-0.184317
-0.0446404
-0.590389
-0.0916168
-0.00237076
-0.333869
0.856285
1.32757
0.772978
0.712413
-0.564512
-0.148924
-1.2383
-0.00580803
-1.23171
0.436737
0.650356
-0.00793737
0.99544
0.000636776
0.000371065
0.127218
0.250763
0.248546
0.217706
0.805285
0.186989
-0.0212247
0.200947
-0.067634
0.541126
1.27225
0.277022
1.29137
-1.06978
-0.726804
0.0655881
-0.0633929
-0.0637665
0.501844
1.26197
-0.0618853
-0.332392
-0.771055
-0.243976
-0.0230404
-0.000780066
-0.0102223
-0.73764
-0.0542007
-0.682477
1.1307
0.0275357
0.000272046
0.0129819
0.639307
0.468521
0.295571
0.000144626
-0.0154813
-0.00208821
-0.501345
0.0287021
0.0120546
-1.08437
-1.57425
-1.46729
0.00324879
-0.00433729
-0.00834842
0.32428
0.934167
0.117992
0.248348
0.151419
0.558019
0.821664
0.876913
0.376607
0.412405
-0.505662
0.0889469
0.372323
-0.959043
-1.05351
-0.503685
-0.0204077
-0.0128103
-0.0168445
0.721343
-0.261339
0.315235
-0.743019
-0.123318
1.08393
-0.400471
-0.285545
1.15303
0.669487
1.06115
-0.0970709
-0.136585
-0.131753
1.35187
1.44487
1.53596
1.05192
0.756967
0.624919
-0.895267
-0.87823
-0.89385
-0.251424
0.0843244
0.378215
0.00198232
-0.0256064
1.14506
0.817285
0.262886
0.217423
-0.011261
0.884468
1.5639
0.0649055
-0.22276
1.13305
1.6541
-0.00990751
-1.02471
-1.42734
-1.09019
-0.0138092
-0.0250238
-0.0103163
-1.0778
-0.836195
-1.34141
0.996757
-0.496077
0.416226
1.04358
0.254866
0.478197
1.05732
-0.466225
-1.86491
-1.9681
-1.94899
-0.987246
1.06358
-0.506987
-0.732308
-0.626815
-0.614432
0.0908718
-0.897935
-1.28459
-0.820842
-1.43047
-0.919751
-0.556806
-0.162508
-0.337397
0.00734167
0.00367252
0.00221544
0.992707
0.406079
0.884477
-0.152006
-0.349926
0.0632127
0.311856
-0.00915417
0.374825
0.00477029
0.771734
1.40404
1.28006
-0.651043
-0.539911
-1.47357
-0.727321
0.867284
0.860227
0.0280991
0.534734
-0.364559
0.269677
-0.203068
0.531492
-0.0302602
0.0629655
0.0845348
0.0531417
0.666438
-0.134565
-0.0373352
1.25441
0.133608
-0.758111
-0.940383
-0.62038
-1.44297
-0.908816
0.939215
-0.641194
0.320799
-0.770212
0.0310823
0.90818
-0.241543
-0.73586
0.886754
1.08144
0.198114
0.457314
-0.390244
-0.144806
-0.273135
0.568785
0.89571
-0.103333
-0.913581
0.814263
0.956847
1.32039
0.594932
-0.304522
-1.15491
-0.359716
-1.27569
-1.17653
0.15665
0.197365
0.111166
0.673992
-1.46433
0.920792
1.41579
0.910383
0.0688787
0.664903
0.262979
-0.23622
-1.21789
-0.587882
0.391932
-0.400535
0.50913
-0.206976
-0.360532
0.252557
-0.0489983
0.00458848
0.00302097
-0.000626834
0.129102
-0.11605
0.147863
-0.577242
1.20703
0.141557
1.22968
-0.206874
-0.580324
-0.151415
1.17579
0.381109
0.313891
0.0127365
0.00617121
-0.0838036
0.0170855
-0.00198866
-0.799641
0.201061
-0.223098
-0.00173587
0.00091334
0.0017845
-0.738275
0.947173
1.0886
1.31754
-0.0556433
-0.588355
-0.0292517
-1.16328
-1.48905
-0.949609
-1.18335
0.00169512
-0.203875
-0.936257
-0.125751
0.629814
0.648339
0.142699
-0.365635
1.26775
1.31903
1.23693
0.313838
0.978374
0.247651
-0.390527
0.0967035
-0.293905
1.02032
0.00455502
0.513517
-0.764035
-1.68305
-1.49479
0.19271
0.255082
0.347799
0.0230702
-1.05456
-0.0367657
0.539585
0.0383152
-0.0986899
0.0582387
0.0792266
-0.0374806
0.0391118
0.0555795
0.0501961
-0.491439
0.122537
1.01755
-0.126492
0.138123
-0.115195
-0.481696
-0.387751
-0.759309
0.690096
0.444028
0.290401
-0.446027
0.362559
0.69653
0.681768
0.388585
0.557237
0.143876
-0.767873
-0.729908
0.918643
0.296533
0.971854
1.25846
1.35957
1.35522
0.01191
1.11306
0.491785
0.880253
-0.10483
-0.217512
-0.145199
-0.655799
-0.439964
0.136253
0.000114933
0.00713529
-0.773486
-0.42211
-0.83987
-0.690313
0.0102592
0.00896103
0.00912421
0.015265
0.00542674
0.0129122
0.759564
-0.00147493
-0.000617272
-0.00063077
0.925172
0.144823
0.622879
0.57508
-0.483534
-0.241507
-0.281415
0.0155262
0.00226596
-0.0211124
0.262594
0.81345
0.959131
0.148382
-0.0301467
0.484237
0.0223605
0.0287635
0.0535487
-0.613102
-0.380715
-0.658853
-0.296851
0.321806
0.0380902
1.07767
0.445438
1.15732
0.00652724
-0.482692
-0.506608
-0.477316
0.047719
0.77106
0.884242
0.000840204
-0.114504
-0.316924
1.28028
-0.704144
-0.636669
-0.70032
0.0898776
-0.220173
-0.151356
-0.576878
-0.794562
-0.773074
-1.32881
0.0125384
-1.01361
-0.0972152
-0.703237
-0.879209
0.812183
-1.06242
-0.826964
-0.061048
-0.0292469
0.00781136
-0.619227
-0.117311
0.320684
0.0299869
0.0888793
0.0274966
0.110573
0.145844
0.019134
0.420362
-0.594052
-0.70919
-0.606736
1.04552
0.247997
-0.307922
0.308596
0.107762
-0.254837
0.518422
0.742038
0.547806
-0.0131446
-0.549574
0.15478
0.824541
-0.0639685
0.385939
1.14567
0.792695
-0.664803
0.0561343
-0.0207372
0.554978
0.89174
1.23384
-0.792979
-0.929869
-0.463391
1.12092
0.819169
0.792179
0.0305791
0.0310592
0.0275541
-1.07101
-1.26752
-1.2653
0.124754
0.0930795
0.0646313
0.0820372
0.0214077
0.00908412
-0.14837
-0.503014
0.316796
0.292905
0.258523
-0.511145
-0.0263439
-0.621994
-0.24496
0.0465161
0.019568
-1.50911
0.672358
-0.587642
0.235245
0.212781
0.183366
-0.0151883
0.0195399
-0.557379
-0.00302134
0.000403677
0.000185411
-0.464005
0.75526
-0.0179716
0.794897
-0.0177055
-0.13728
-0.0141787
-0.140437
-0.526112
-0.500521
-0.0765055
0.0155521
-0.163852
0.00602162
0.0265252
0.0341978
-0.00250395
-0.00131132
1.73738
-0.0295301
-0.197344
0.44578
0.686798
0.143601
0.750393
0.567492
0.755378
0.60271
-0.194642
-0.143866
-0.282526
-0.014477
-0.0223375
-0.0203826
-0.634794
-0.21547
0.868369
-0.3769
0.741772
0.0146173
0.631659
0.80378
-0.108617
0.782306
-0.179681
0.791356
-0.498773
-0.250433
-0.386433
-0.642057
-0.590863
-0.0135475
0.0952532
-0.02037
0.000245014
-0.000385331
-0.853424
-0.924596
-0.444814
-0.490418
-0.9635
-0.474005
1.28858
-0.127794
-0.456233
-1.02312
1.08255
0.405703
0.481893
1.37901
-1.32558
-0.92505
-1.22539
-0.172974
-0.161888
-0.0689711
-0.00477849
-1.03391
-0.74173
-1.15559
0.600024
-0.026857
-0.339566
-0.0674095
-0.0582369
-0.05886
-1.43948
-0.263698
-0.258635
-0.175165
-0.118318
1.06272
-0.162598
0.845063
-1.44889
-1.48476
-0.549885
-0.57377
0.388347
0.606037
-0.913195
0.537859
0.901256
-0.0873127
-0.00393356
-1.03941
-0.248229
-0.517998
0.755194
0.704992
0.676
-0.0027058
-0.00310475
1.03016
-0.0295625
0.285367
0.240506
-0.263807
-0.624165
-0.695882
0.136579
-1.05605
-1.63086
-1.40891
-0.613571
-1.41074
0.517417
-0.543153
-0.568625
-1.07607
1.14881
0.0327785
0.0399393
-0.000742051
-9.40945e-06
-4.13593e-06
-0.00056191
0.00202884
-1.47377
-0.0423145
-0.0124033
-0.0329767
-0.0427284
0.0768314
0.0521508
0.41832
0.859636
-1.56411
-0.0851123
-0.647186
0.0120445
0.00247892
0.546634
1.47698
0.780555
-0.775421
0.714073
-0.253629
-0.44896
-0.645263
0.151432
-0.148004
0.0120099
-0.000735112
-0.0142559
-0.0502333
-1.1385
0.0380283
-0.0728167
-1.16189
-0.722492
1.43658
0.896487
0.75483
-1.21312
-1.36134
-1.50992
-0.807908
0.226963
-0.356043
0.739755
0.00749442
-0.0058788
-0.0243999
-0.0410343
0.0111328
0.527807
-0.986112
-1.49752
-0.820292
-0.942585
0.183019
0.38121
-1.31686
-1.22694
-0.695336
-0.683961
-1.19216
0.962267
0.903619
1.13891
0.417768
-0.0460783
-0.0481162
-0.0633826
-0.522741
-1.64896
0.00967063
0.0633154
0.0674814
-0.318097
-0.944717
-0.800191
0.990798
0.283205
0.722691
0.0121906
0.0423713
-0.0403533
1.35001
-0.0871909
0.159122
-1.1241
-1.02935
-0.487829
-0.0292029
-1.25105
-0.000282153
-0.66387
1.62638
0.0164527
0.9104
1.42347
-1.018
-0.0837158
0.155162
0.0630481
0.174879
0.267035
1.05437
0.54653
0.622861
-0.763049
-0.724568
-1.01254
0.0481161
0.00472099
0.0582819
-0.119351
-0.235712
-0.906759
-0.688391
-0.434432
0.515696
-0.0100474
0.135535
-0.82248
0.486354
-0.00112867
0.666407
0.804803
0.528779
0.141268
-1.22881
-1.13721
-1.49811
0.187832
1.6502
1.28149
0.788584
-1.25106
0.843485
-0.60042
-1.15472
-0.802125
-1.2304
0.916809
0.032013
0.0656091
0.0975897
-0.320463
-0.0107711
-0.0139078
0.0223911
0.11983
0.769757
0.792428
0.756941
0.225446
-0.529155
0.111133
0.162568
0.145403
-0.955434
-0.409457
-1.12327
1.19149
-0.0703575
-1.04464
-0.947333
0.00721991
-1.24295
-0.880423
-0.0413277
-0.00423256
-0.00735673
-0.0106611
-1.21534
-0.844999
-0.633913
-1.39024
0.810803
0.519003
0.921205
-1.0385
0.0680076
-0.562634
-0.0131084
0.0448408
-0.032169
-0.0512145
-0.0379801
0.42849
0.798582
0.562864
-0.737165
-1.38465
-0.943651
-0.424579
0.121294
0.890226
-0.564512
0.0612565
0.0230793
0.0635055
-1.36211
0.0109101
-0.988154
-0.0268925
-0.0425775
-0.0565469
0.0610697
0.00215449
-0.302682
-1.00111
-0.338266
0.00856465
-0.263159
0.00951186
0.0350958
0.466805
0.878227
0.158872
-0.38133
-0.251876
0.380132
0.478972
0.27044
-0.177702
0.32842
0.64171
0.380257
-0.118464
-0.647155
-1.22308
-1.2318
0.0982186
0.416029
1.02929
-0.30476
-0.777606
-1.42331
-1.36591
-0.000646636
0.529051
-1.57728
-1.45511
-1.75518
1.06653
-0.890872
-1.50931
-0.973252
-1.27726
-0.587001
-0.749134
0.200386
-0.668866
0.71069
0.0160296
0.0154064
0.00509341
-0.175337
-0.00575206
-0.00762481
-0.00826268
-0.0862081
-0.122429
-0.0839287
1.13623
0.614828
1.08753
-0.192
-0.175116
-0.424162
0.0316148
1.15665
0.116536
0.756791
0.249547
-0.181007
-0.133376
-1.1864
-0.438054
-0.247043
-0.120781
0.0656746
-0.552013
0.188766
0.356069
0.161424
-0.526254
0.950794
0.837333
0.568771
0.269468
0.258627
-0.415875
0.43418
0.417375
0.509293
0.784292
0.427315
1.00585
0.0826183
-0.684429
-1.21057
0.772842
0.168774
0.10917
0.249265
1.08176
0.23491
-0.831767
-1.20718
-0.752514
-0.485704
1.40686
1.44106
-0.031152
-0.0198878
-0.010187
-0.109495
1.19278
-0.918103
-0.179257
-1.11164
-0.496653
-0.509553
-0.215651
-0.654396
0.247413
-1.15683
-1.45013
-1.24861
-0.33969
-0.689591
0.457198
1.40793
-0.0408251
0.0319765
0.502266
0.77728
0.085896
0.845102
0.00384309
0.0022687
0.00104519
-1.45808
-1.02093
-0.888808
-0.657801
0.0245577
0.019884
1.04333
-1.11594
-0.629678
1.19138
1.07245
0.0295058
0.737414
0.251823
-0.208745
1.26767
1.18744
0.762095
0.00863215
-0.358455
-1.50565
-0.00543389
-0.0282578
-0.642292
-0.210475
-0.0887357
0.64806
0.256546
0.691868
-0.482841
-0.655915
0.0408534
0.34452
-0.268856
-0.0214474
-0.047673
0.00168
1.69486
1.76376
0.139588
0.0800011
-0.240535
-0.383701
0.471111
-0.776613
0.297878
-0.0177466
-0.0234931
-0.00983127
-0.602999
-0.0188116
-0.413486
0.872219
1.00865
-0.415771
-0.426827
0.478399
-0.95895
-0.316297
-0.82759
-1.3949
-1.49596
-1.51241
0.534636
0.980359
0.972242
-0.193311
-0.583751
-0.00525188
-0.585918
-0.204896
-0.501487
-0.42333
-0.769639
-0.0834865
0.335529
0.118543
-0.805127
1.03926
1.14224
1.09764
0.396608
0.613318
0.365664
0.259825
0.270701
-0.281631
-0.179084
-0.147186
0.171978
-0.306645
0.296879
-0.395835
1.02997
1.41207
-0.303411
-0.699098
-0.413226
-0.0293192
-1.01213
0.983548
0.657008
-0.166933
0.565869
1.01599
-0.0104822
-0.633681
-0.0597892
-0.649345
-1.64372
-1.86828
1.48263
1.24007
1.27692
-0.457781
0.562782
0.707712
0.107806
-0.384164
-0.846509
-0.00787008
0.0814034
0.00456717
0.0164844
-0.404795
-0.683417
-0.987252
-0.963604
0.0277579
0.557558
0.167036
0.928075
1.27626
0.146965
0.730514
0.649886
-0.103483
1.02496
0.606736
0.0383006
-0.048384
-0.00727084
0.64549
0.0479422
0.058116
0.114634
-1.20345
-0.485872
-0.196344
-0.582173
0.0148358
0.0190413
-0.888556
-0.927784
-0.629485
0.0994649
0.783862
0.55422
-0.395648
-0.418873
0.27914
-0.240638
-0.0866009
-0.319876
-0.72003
-0.773979
-0.709363
-1.04595
0.00322511
0.00190397
0.000823023
1.35261
0.10055
0.155194
-0.0656333
-1.17392
0.148197
-0.626424
-0.665125
0.522892
0.575513
0.290757
-0.776588
-0.593767
-1.0164
-0.498786
0.522287
0.312256
0.46422
0.326622
-0.311021
-0.0088367
-0.00933006
-0.243443
-0.66777
-0.099797
0.0646021
-0.00289113
-0.645927
-0.614317
-0.317684
1.23812
1.35367
0.226297
-0.955187
0.580938
0.975348
0.36287
-0.551891
0.0289591
-1.0146
-0.702295
-0.755025
0.209261
-0.481012
-0.351879
-0.183361
0.127839
0.49548
0.851681
1.34272
1.12411
-0.435746
-1.09469
-1.07711
-0.0267472
-0.0320528
-0.0723128
-0.210629
1.18899
0.391388
0.21929
-0.431679
-0.194647
-0.577927
-0.472206
-1.05275
-0.638193
-0.1072
-0.00727408
-0.431359
0.557795
0.956009
-0.326938
-0.482829
-0.181728
-0.218285
-0.707911
-0.246625
-0.166029
0.993942
0.602388
-0.492546
0.52619
1.15669
0.995081
-1.58801
-1.27635
-0.219445
-0.507694
-0.792307
-0.000283824
-0.0861128
0.965815
0.518837
0.0498066
0.0183722
0.436621
-1.35194
-1.43694
-0.904443
-0.859112
-0.0090734
-0.234908
-0.0438802
-1.02103
-0.418307
-0.370347
-0.352516
-0.316436
-0.658541
0.194271
0.631105
0.125627
-0.924284
-0.85891
-0.829826
1.18774
1.24953
0.427688
-0.253964
-0.426242
-0.0766308
0.00592667
0.0721443
-0.994152
-1.40064
-0.5889
-1.60269
-1.1333
-1.71195
0.55196
-0.0748357
0.0547929
-0.55914
0.546664
1.26072
1.14699
1.47043
-0.897382
0.00508664
0.00444644
0.00566739
-0.949094
0.00945094
1.07851
0.841925
0.686131
1.05084
0.370392
-0.00916483
-0.0452753
0.16049
-1.16022
-0.7824
0.319604
0.329871
0.483119
0.476566
0.334411
0.332589
0.728298
-9.59399e-05
-0.00252813
-1.40462
0.28304
-0.552138
-0.18102
-0.0629246
0.728501
-0.252803
0.719999
-1.09984
-1.58623
-1.10118
-0.0169822
-0.0237744
-0.0345542
-0.00040885
-0.328717
-0.473908
-0.848233
0.00287153
0.00276734
0.00485115
1.0043
-0.0438632
-0.0688973
0.729738
0.944675
1.12021
1.05454
0.530554
0.569805
0.160468
0.781041
-0.0056084
-0.184862
-0.0702322
1.57485
0.336442
0.635138
-0.215501
0.322941
-1.7559
0.687157
-1.06415
-0.520222
-0.578585
-0.0567067
0.346193
-0.29952
-0.157197
0.734003
-0.00112985
-0.040006
-0.026267
0.281341
0.731453
0.360391
-0.547986
0.3869
0.790481
0.00369352
0.942953
0.973277
1.97981
0.581688
-0.143776
0.276004
-0.116336
-1.05492
0.0206596
0.0487604
0.019594
-0.682554
-0.868967
-0.339187
0.325053
0.660337
-0.00693476
0.923421
0.846909
0.397455
-0.017732
-1.11467
0.551098
0.418161
-1.41818
-0.761383
-1.21943
0.0354855
-0.0402658
-0.737884
-0.0473623
-0.268859
-0.0451995
1.34116
1.6444
0.161886
-0.49527
-0.437425
-0.0261365
0.0936725
0.239453
0.0364655
-0.394994
-0.217405
-0.447205
-0.287447
0.0696989
-0.0865654
0.053637
-0.0297619
1.11424
0.125521
1.33177
0.738031
0.0821203
-0.00168987
-1.28311
0.562035
0.825881
-0.174313
-0.957384
-0.693381
-0.320093
-0.871746
1.48064
-0.407522
1.07533
0.722188
0.174238
-0.685387
-0.35069
-0.0466808
-1.28314
-1.36533
-0.847825
-0.830858
-1.36775
0.923147
1.12805
0.837278
0.0399559
0.85963
1.19492
0.183431
0.647671
-0.446708
-0.930098
-0.000824762
-0.00248651
-0.00116275
0.026103
0.0198826
0.0344416
0.332233
0.736399
-0.165029
0.0104594
-0.757203
0.430056
0.620845
0.468246
-0.605935
0.0138441
0.0270086
0.0237468
-0.990496
-0.844705
0.661912
0.541083
-0.0286011
0.0946797
-0.563504
-0.328646
0.970359
0.00778828
-0.0387898
-0.0713895
0.595529
0.30862
-0.0673189
-0.552023
1.3647
0.998171
0.485147
-0.73877
0.00327733
0.498742
0.863644
0.671461
0.000857102
-0.0194453
-0.00656593
-0.00910631
1.87971
1.31231
1.52786
-1.06673
0.443972
0.54702
-0.0621531
-0.346476
-0.0484483
0.182512
1.41996
1.43145
0.178252
-0.258066
-0.710329
0.911556
1.43425
1.66361
1.15939
-1.70516
-1.31466
-1.67238
-0.00947649
-0.0150285
0.00504103
-0.161987
-0.609032
1.63432
1.90693
-0.0480707
0.178811
0.185086
0.834208
0.223937
-0.257162
-0.420715
0.563527
-0.784557
-1.27248
-1.19821
0.0265641
0.580922
0.80226
-0.669646
-0.0206382
-0.00141934
0.140433
0.474454
0.444891
0.576641
-0.871152
-0.236344
-0.771817
0.499281
-1.32931
0.385066
0.610458
0.131761
1.80981
-0.249109
-0.0924929
-0.0834836
0.526883
0.424585
0.0132272
-0.0115313
-0.0541964
-0.0513884
0.0180622
0.470821
-0.48942
0.190322
0.116263
0.201403
0.152833
0.118665
0.971811
1.17068
1.13732
-0.849892
0.0433039
-0.109608
-0.0660172
-0.776684
-0.0757268
1.16246
1.46269
0.0477219
0.675214
0.00251306
0.738217
-0.00454383
0.0590181
-0.513585
-0.401724
-0.316323
1.74656
1.80939
0.878411
0.534792
-0.915196
-0.23994
-0.907257
-1.65653
-0.263369
-0.622549
-0.157327
0.183571
0.565083
-0.152154
-1.20108
-0.789035
-1.02696
0.0590021
0.0118482
-0.00703489
-0.0402356
0.98337
0.840336
1.38072
0.102254
0.700404
1.12242
0.195432
-0.385663
-1.00877
-0.211686
0.0578729
-0.00148095
-0.00402085
-0.00113673
-1.02483
-0.69482
-1.02946
-0.255641
1.13275
1.01081
0.944175
0.148414
-1.37919
0.673216
-1.27464
0.161258
0.0627862
0.0832176
-0.173603
-0.406157
-1.50829
-0.689947
-1.4042
1.1656
-0.923854
-0.00881759
-0.283652
-0.842052
-1.04406
-0.794887
1.80221
0.559433
1.14264
0.351315
1.04644
-0.162832
-0.242224
-0.00810665
0.340525
-0.630191
0.569109
0.346652
-0.772501
-0.355656
0.939041
0.598196
0.0155783
0.696552
0.0459277
0.178076
0.63413
-1.07441
-0.593027
-0.719662
-0.265025
-0.54996
-0.737224
-1.32316
-0.955201
-1.0482
1.19019
-0.726641
0.0342388
0.79826
0.533393
0.916597
-0.038094
-0.0107562
0.0197486
0.0295775
0.0229688
-0.309759
-0.90107
-0.742506
1.55509
1.29481
0.223707
1.29385
0.313198
0.903025
-0.552714
-0.622991
1.39662
1.16329
1.37273
0.184149
-0.204608
-0.993567
-0.257205
-0.654209
-0.859708
-0.940652
-0.570044
-0.720834
-1.11626
0.909411
0.980877
0.628232
-0.00594809
-0.639515
-0.599132
-0.948391
1.09238
1.09683
-0.364243
-0.444333
0.866961
0.794265
0.870759
0.00556194
0.0942098
0.70529
0.123036
0.455154
0.00638193
-0.968653
0.471538
0.108736
-0.769036
0.264983
0.186055
0.9271
1.04207
0.143271
0.719906
-0.555877
1.35973
0.725288
0.00891028
-0.350681
-0.728292
-0.114155
0.0896743
-0.709215
-0.000530301
1.26397
1.06577
1.57831
-0.81888
-0.0710353
-0.376747
0.573997
0.720207
0.0128906
0.515395
1.03901
1.29237
-0.556377
-1.27967
-0.25531
-0.171226
-0.825091
0.313759
0.00650972
-0.0522183
-0.035655
0.378568
0.40976
0.771225
-0.639605
-0.549386
-0.651478
-0.347064
-0.534845
0.37628
0.585878
0.832605
1.43777
1.2568
1.15303
-0.583411
-1.43204
-1.55821
0.470705
-0.3855
-1.27491
0.750232
-0.0086928
-0.175031
-0.86201
-1.55238
-1.39684
0.000477654
0.106867
-1.35291
-0.238929
0.316488
0.718235
0.620449
1.16716
-0.950844
-0.802561
-0.366129
0.0844949
-0.358026
0.0175291
-0.0270257
-0.0117413
-0.00522589
-0.0017389
-0.00323048
0.0842456
0.268834
0.0855945
-0.716378
-0.0723391
-0.0589418
-0.39959
-0.469547
-0.0838389
0.0512591
0.00237012
-0.0565426
-0.153754
-0.0850397
-0.16316
1.18572
0.889163
0.423793
0.131693
1.0814
-0.0780499
0.0352516
-0.0909462
-0.36442
-0.918536
-0.629316
-1.10407
-0.145575
0.593559
-0.0990694
-0.00483788
1.33044
1.49412
1.24984
1.3807
0.156018
1.22945
0.379957
1.48694
-0.0598219
1.01346
1.20582
0.901089
-0.400942
-0.570103
-1.06791
-0.703482
-0.440053
-0.954392
-0.159713
0.980079
0.0848233
-0.0574843
-0.523064
0.974198
-1.75423
-1.7489
0.555406
-0.211129
0.884453
0.502963
0.814471
-0.102151
0.177378
-0.181966
-0.295699
0.535896
0.268853
0.0692396
1.15506
-0.0262031
-0.0191466
-0.874305
-0.573824
-0.0285261
-0.736959
0.97316
-0.150757
-0.0436452
-0.226581
0.69152
0.787404
0.207762
0.959353
-0.791648
-1.60377
0.0494979
0.03141
0.0271004
-0.393477
-0.156894
-0.463261
0.0891145
-0.54609
-0.414137
0.267449
-0.559398
-0.43302
-0.771131
-0.734678
1.47202
1.38051
1.72459
0.00231447
0.268558
0.432071
-1.12904
-1.2301
-1.00336
-0.298564
-0.529614
0.0244359
-0.0137376
1.04052
0.494821
-0.15449
1.40968
1.56036
1.54277
-0.293178
0.19113
-0.509619
-0.00155032
-1.0233
-8.02229e-07
0.453166
0.973495
1.36353
0.867441
0.267101
-0.282697
0.586515
0.236552
-0.0304009
0.0200333
1.01327
1.33423
1.80455
0.949066
1.39968
-0.321246
0.0388302
-1.4471
-1.51118
-0.829708
-0.109663
-1.04943
-0.0477182
-0.1397
1.06461
0.862757
1.1619
0.176426
0.0992083
0.997305
0.177181
0.475999
-0.255026
-0.29278
0.971187
0.472736
0.866914
0.724859
-1.01631
-1.39136
-1.43118
1.00378
-1.60799
-1.5409
-0.601036
-0.0851499
0.988067
0.876783
-0.0250585
0.151787
-1.14256
-0.491398
-1.33375
-0.00511899
-1.31318
-1.24085
-1.22906
-1.31822
1.30847
0.913354
1.501
1.14214
-0.473274
-0.313575
0.103136
-1.25784
-0.435408
-0.575365
0.587619
-0.555926
0.000407338
-0.0352892
-0.074023
-0.0604041
0.384109
1.40281
0.152414
0.171174
1.0515
-0.0225928
-0.214546
-0.534626
-0.49009
-0.131885
-0.00298133
-0.441848
-0.192327
0.807263
-0.121576
0.713096
0.347472
0.54406
0.532647
0.956997
0.247033
-0.194569
0.443999
1.39437
0.318511
-1.0586
0.563435
0.479431
0.316498
1.14553
0.501405
1.20302
-0.492291
-0.71429
-1.4142
-1.62073
0.520968
1.06901
1.4807
0.15158
0.460696
0.172647
1.52985
0.763419
-0.613659
-0.530363
-0.0794366
-1.14299
0.899767
1.0751
0.00390661
0.0143919
0.00710267
1.37991
1.56966
1.05242
-8.43801e-05
0.312503
1.26433
1.37111
-0.778521
-0.208059
-1.10799
-1.37725
-0.594029
-1.08745
1.27337
0.960821
0.119955
0.358845
-0.324071
-0.203162
-1.40065
-1.82979
-1.81964
-0.741247
-0.0120894
-0.0198985
-0.0223076
0.973555
1.29489
1.16609
0.783396
0.206304
0.198584
-0.00908537
-0.00715341
-0.00209963
1.05141
-0.422566
-0.964307
-0.0429475
-1.51569
0.360419
0.495147
-0.974644
-0.29233
-0.0542915
-0.195484
-0.585879
0.803972
-0.18383
-0.827523
0.465451
0.999475
-0.556369
0.36349
0.373856
-0.612548
-0.66103
0.0559123
-0.346887
-1.90257
-1.48993
0.475753
0.248459
0.135634
-0.748785
-0.47673
-0.561523
-1.16915
-1.2256
-1.09972
-1.40075
-0.0886298
-0.767337
0.363487
-0.317835
-0.455306
-1.3514
-0.424692
-0.371255
-0.829306
-0.815093
0.0382318
0.615297
-0.132828
-0.015138
1.87979
1.77105
2.07533
0.0248607
0.12143
1.05808
-0.905707
-1.28397
-1.13035
-0.899824
-1.29218
-0.617363
-0.0206834
-0.0106736
0.0125252
-0.439637
-0.131651
0.99067
1.12728
1.03333
0.410716
0.828364
0.901984
0.713909
0.756675
0.250037
0.136782
-0.09252
-0.203178
0.0196109
0.0133475
0.00380277
-0.0141731
-1.08884
-0.40549
-0.13826
-0.111749
-0.306501
0.240392
-0.00337372
-0.0337757
0.326525
-0.0249291
-0.0248345
-1.07639
-0.466092
-0.584227
-1.16182
-0.999569
-0.40383
-0.300495
0.704472
-0.0387939
0.635616
0.051459
0.0275026
-0.530532
-0.491402
0.780373
-0.315301
-0.319191
-0.31857
-0.388919
1.08241
0.320085
0.470809
0.637857
0.0282385
0.0110935
1.53802
1.85894
1.5854
-0.254136
-0.21406
1.15856
-0.152831
2.07465
0.0212073
0.572065
0.556692
-0.975022
0.00782944
0.610614
0.70039
-1.17452
-1.05162
-0.591628
0.00307072
0.00540634
0.0014649
-0.037487
-0.053013
-0.0435087
0.552489
0.0225976
-0.373938
-0.383206
0.470355
0.476254
-0.50224
-0.697826
-1.32106
-2.39841
-1.80461
0.0727505
0.809495
1.48591
1.03861
0.421045
0.338572
-0.683334
0.391487
-0.0967584
0.647215
0.611836
0.670251
0.431346
-0.02195
-0.641903
-0.379104
-0.717946
-0.914733
-1.31999
-1.22661
-0.962922
0.539405
1.43934
0.152831
0.534959
0.699368
-0.0929638
0.42051
0.28589
-2.63064e-05
-0.0099092
-0.00142628
-1.39447
-1.6272
-0.618841
-1.08188
-0.907286
0.958667
1.05897
1.21475
-0.00164886
0.00376449
0.00413314
-0.0112288
-0.0139577
-0.0125438
7.65303e-05
0.0456693
0.136374
0.784369
-1.88531
0.252672
0.0203147
0.00121127
0.477511
-0.4123
0.539127
-0.325291
0.244102
1.20676
0.898156
-0.736437
-1.14118
0.586518
-0.734961
0.4687
-0.641406
-0.621571
-0.468849
-1.02572
-0.579064
-0.519044
-0.167215
1.45456
1.31942
-1.46817
-0.730337
-0.483231
1.10201
0.712127
1.34231
0.135154
-0.8766
1.02019
0.0049564
0.00647764
0.0149203
0.112904
-0.00885417
0.0644374
-0.0835026
0.0134186
1.24449
1.06333
1.01883
0.151161
-0.493663
-0.100462
-0.0761577
-0.0617673
-1.01319
-0.0700118
-0.0994934
-0.107595
-0.00338285
0.0719732
0.0557236
-1.43716
-0.681838
-0.340582
2.17909
0.191097
0.719768
0.693765
1.24669
0.654259
0.40649
-0.410439
-0.66616
-0.224114
0.00897926
-0.0403156
-0.887184
0.519806
-0.00803883
-0.00837796
-0.395787
1.04686
1.21385
-0.158906
-0.238549
-0.152619
-0.366
-0.253909
-0.779143
0.479812
0.440436
0.843188
-0.0165466
-0.26404
-0.120519
-0.75411
-0.470557
-0.713996
0.921497
1.34297
1.45208
0.0206662
0.841766
0.890155
0.316721
0.858566
0.978842
-0.222584
0.163578
1.03654
-1.03633
0.0127275
-0.0158185
-0.0198097
-0.0581096
1.36227
-0.139755
0.259909
-0.0116555
1.3957
-0.0476852
-0.561762
-1.1388
-0.708179
0.648998
-0.601051
0.338382
0.00220003
-0.731079
-0.259927
-0.0298424
-0.0358999
0.939653
0.61964
-1.07915
0.595212
0.925385
0.392226
-0.549489
0.378638
1.20371
0.122051
0.589043
0.499582
0.00771445
1.18585
-1.14314
-1.68676
-1.5169
-1.42021
-0.522663
-0.953267
0.749017
-0.0364189
-0.0514478
-0.831623
-0.0094988
0.850055
-0.200902
0.567034
0.412361
0.480499
0.901887
-0.358526
-0.7209
-0.535113
-0.418421
-0.294814
0.877837
0.170732
0.162773
0.572799
-0.215317
0.279066
-0.0811959
-0.304573
-0.324181
0.890307
0.219654
0.248858
0.944219
1.54065
-1.0168
0.183232
-0.880401
0.572096
0.553534
0.747711
1.0753
1.28359
0.651439
-0.29829
0.167433
-0.10364
-0.165985
0.524184
-0.133644
-0.463838
-0.619764
-0.244418
0.839058
0.840405
0.0428587
-0.355476
-0.286926
1.50595
0.79742
0.0349955
-0.404926
0.070452
0.1249
0.0618052
-0.170799
0.0354112
-0.27577
0.879611
-0.89627
-0.464673
0.435894
-0.0535736
-0.0381883
-0.365179
-0.0144888
0.189046
0.46857
-0.0360736
0.19219
0.115
-0.389204
0.223756
-2.23343
-0.00125103
-0.545027
0.187075
-0.878252
-0.389886
-0.00023391
0.000932574
0.0317638
0.93664
0.61749
0.471187
0.940607
1.14018
0.198019
1.20713
-0.00842955
-0.00610839
0.660815
0.507864
1.09453
0.780308
0.968389
-1.05817
-0.192495
-0.254866
-1.3375
0.211629
-0.577084
0.565505
-1.32557
-1.14239
-0.425414
0.00354821
-0.332686
-0.00378033
-0.00502401
0.793926
0.0147268
-0.0051528
0.0333733
-1.28574
-0.852617
-1.3632
-0.653831
0.157823
-0.79046
-0.569469
-0.809583
-0.42033
-1.22413
-0.616217
-0.302135
-0.281048
0.785732
-0.633225
-0.774037
-0.664955
-0.702802
-0.541987
1.28121
-0.155206
0.667743
1.34912
-0.00439541
-0.00388335
2.00049
1.77603
-0.143228
0.212208
0.491581
0.595409
-0.24607
0.488889
-0.234426
-0.0444995
-0.0363909
-0.362439
-1.25173
-1.13909
-0.757357
-0.606296
-0.528536
1.42889
1.57743
1.23304
-0.526667
0.0898401
-0.657852
-0.198109
-0.0162911
-0.303991
0.523878
0.825531
0.0106992
0.0212503
0.0163231
-0.729165
-0.000843234
-2.78248e-05
-0.000728797
1.45705
-1.29028
-1.0655
-0.85713
1.78279
1.75263
-0.938669
-0.952212
-1.22161
0.185338
0.167354
-0.574662
-0.621952
0.918061
0.829822
-0.15318
0.265018
0.0913076
-0.894296
-1.30194
-0.955635
1.12705
-0.00188424
-0.976411
-0.865394
1.33592
0.677532
0.40829
1.01788
0.137486
-0.84566
1.21299
1.23308
0.182218
0.20499
0.00973917
-1.26792
-0.111533
-0.0154765
-0.0157333
1.09285
1.45323
-0.23715
-0.453451
0.652309
-0.348195
-0.356897
-0.279362
-1.516
-1.37096
-1.44595
0.108696
-0.569598
-0.223146
-0.312479
-0.432472
-1.17042
-0.000642262
-1.15024
1.16458
1.39203
0.742559
1.58286
1.58927
-1.31081
1.5318
0.960234
-0.0645804
-0.0329141
0.00272785
-0.111975
-0.506303
-0.107944
0.32201
-0.525957
0.653781
0.0597707
-0.789715
0.163873
0.0670026
-0.161621
0.011854
-1.31183
-0.0830525
-0.0209329
0.669266
-0.0672301
1.33979
1.6933
0.906916
0.68556
1.07776
-0.0107175
-0.00855931
-0.126472
-0.0572907
-0.439638
-0.296027
-0.3794
-0.846106
-0.204709
-0.396023
0.191232
-0.825013
-0.994201
-0.156159
0.112478
1.23104
0.692684
-0.850761
-0.667297
-0.755851
-0.985947
1.06911
0.281085
0.68154
-0.648672
-0.845451
-0.463297
0.632792
1.09945
0.620028
1.30988
0.991126
-0.677462
-0.690442
0.216265
0.0244913
0.0113179
-0.723075
-0.708051
-1.28609
1.21298
-0.967724
-1.38964
0.892885
-1.29658
-0.0373263
-0.0304357
0.0207899
-1.69897
-1.80323
-1.73085
0.445694
0.834652
-0.434149
-0.599969
-0.374886
-0.68351
-0.674622
0.360057
0.108986
0.947643
0.446605
0.367403
0.337378
-0.190075
0.85571
1.16679
1.27917
-0.00497956
0.740593
0.778651
0.887403
1.40062
1.18316
-0.0185457
-0.0414078
0.0421508
0.0300587
0.0730023
0.168863
1.9618
-0.113092
2.18446
-1.44923
0.00936283
-0.00800029
0.00178487
0.0424753
0.0393559
0.133798
-0.84619
-0.162438
-0.344795
0.563302
0.251353
0.809893
-0.536904
-0.164884