<VTKFile type="UnstructuredGrid" version="0.1" byte_order="LittleEndian">
<UnstructuredGrid>
<Piece NumberOfPoints="11465" NumberOfCells="22404">
<PointData Scalars="abs_IR_ur">
<DataArray type="Float64" Name="real_part_IR_ur" format="ascii">
-0.42381
-0.211776
-0.562457
-0.115962
0.348344
-0.0503079
-0.0496575
0.0109546
0.0832067
-0.612184
-0.50461
-0.324813
0.0137511
0.124066
0.0896857
-0.708774
-0.329693
-0.651231
0.125526
0.179771
0.173772
0.0680824
0.0611709
-0.251028
-0.475434
-0.441603
-0.465586
0.216311
0.305476
0.343828
0.435566
0.349264
0.0960562
1.0664
1.22478
0.851847
-0.202657
-0.0212903
-0.0456
0.195853
0.313105
0.0684165
0.00987424
0.384723
0.625234
0.632792
0.700764
0.674465
0.493663
0.470887
0.375556
0.396451
0.589268
0.545963
0.847342
0.0895254
0.155781
-0.391464
0.431303
0.661277
0.672786
0.546457
-0.148843
0.16714
-0.0567907
0.00202336
0.193547
-0.282386
0.0371591
0.57009
0.300878
0.151941
0.11204
-0.0845577
-0.20341
-0.00519825
0.252373
-0.149181
-0.454978
-0.309525
-0.321402
-0.324751
-0.476392
-0.476151
-0.57076
0.468349
-0.318748
0.443519
-0.200543
0.16161
0.152608
-0.231602
-0.33888
0.704938
0.0399712
0.498433
0.0831091
0.125605
0.215735
-0.239143
0.121982
-0.104842
-0.0496251
0.0565779
0.136788
0.212329
0.148808
-1.19927
-0.40915
-0.147241
-0.177111
-0.0774068
-0.462912
0.245759
-0.304379
0.300965
0.526737
0.296257
0.326413
0.496335
0.396634
1.20941
1.01669
1.10867
-0.318649
-0.0058811
-0.672083
0.687306
0.441155
0.219589
0.599056
0.214578
0.698352
0.420467
-0.620277
0.0687595
0.0713699
0.142246
0.144129
0.170539
0.21002
0.248947
0.304458
0.404854
0.868872
0.858057
0.490174
0.137062
0.255455
0.31013
0.751401
0.234759
0.0343784
0.0876874
0.66579
0.11395
0.0860031
0.107702
-0.0607228
0.154742
-0.099376
0.0636707
-0.18055
-0.229627
-0.0249627
-0.183887
0.0440794
-0.0475804
-0.272551
0.603443
-0.466534
-0.28451
-0.678324
0.0755777
-0.104551
-0.0984193
-0.288511
-0.0892019
-0.204576
-0.12213
-0.0334166
-0.0436843
-0.123932
-0.18732
-0.0137496
0.353878
0.267137
0.34
-0.826928
-0.875354
-0.348416
-0.125926
0.551446
0.167033
0.382921
-0.791357
-0.697613
-0.652586
0.183158
-0.442189
-0.447689
-0.516951
0.138768
-0.258214
-0.0255208
0.00248439
0.471371
0.373204
0.495599
1.17937
0.477461
0.428266
0.520051
-1.0883
-1.12642
-0.540614
0.260476
1.1043
1.237
1.08434
-0.0347454
-0.139967
-0.0694229
-0.284806
0.335674
0.0197495
0.09668
0.09527
0.0699883
-0.0844397
0.00831987
-0.46423
-0.572467
-0.606507
0.0736742
-0.143158
-0.0981001
-0.086061
0.784858
0.0136461
0.0894762
0.0911538
0.00960703
0.123393
-0.260534
0.3245
0.328362
0.229538
0.189498
-0.208205
0.0603593
-0.0383254
-0.149979
-0.270539
-0.0222906
-0.175442
-0.159414
0.680504
0.777052
0.906127
-0.549381
-0.523368
-0.614706
-0.653578
-0.0684516
-0.0209239
-0.186578
-0.875836
-1.05862
-0.834332
-0.0526654
-0.48343
0.0268928
0.267344
-0.00319328
0.141927
0.289595
-0.18706
0.267355
-0.167432
-0.0645813
-0.247847
-0.191343
-1.18294
-1.22374
-1.56138
-0.118493
-0.304468
-0.256137
0.104974
-0.0425084
0.33481
-0.357277
0.244282
-0.227734
-0.727628
-0.496834
-0.680648
0.432212
0.121366
0.331445
-0.0846399
-0.0607625
0.0391108
-0.310825
0.0680955
-0.73805
-0.245572
0.0219911
0.570808
-0.400459
0.525714
0.0375496
-0.224129
-0.265827
-0.24835
0.930479
1.24559
1.29231
0.274888
0.196685
0.197803
0.0436043
0.608587
1.13659
-0.101723
-0.23153
0.435903
0.194164
0.0931907
-0.0440106
-0.74918
-1.12556
-0.976563
-0.285939
0.242855
-0.536541
-1.05031
-0.927047
0.178815
0.114013
0.0890891
-0.0134982
-0.123593
0.16794
0.167695
0.405514
-0.060302
-0.315433
-0.383389
0.454258
1.02513
0.798076
-0.381842
-0.163469
-0.221544
-0.114334
-0.164251
-0.30632
0.394413
-0.225616
-0.145961
0.321683
-0.14178
0.674707
0.488293
0.59706
-0.349075
-0.383051
-0.597641
-0.0901878
0.0122325
0.154887
0.0769434
-0.00217486
0.15036
-0.121626
-0.252049
0.563035
0.725772
-0.496184
0.20205
0.0817328
0.070554
0.197025
0.363151
0.254719
-0.206825
0.35325
-0.155517
-0.349751
-0.620461
0.11846
0.365385
0.361623
0.610439
-0.851755
-0.0641088
-0.457763
0.392375
0.143775
0.513222
0.131239
0.659862
0.0985687
0.0875582
-0.0253928
0.163034
0.195174
0.0580007
1.27474
1.18127
1.20203
0.459663
-0.335856
0.133218
0.0621829
-0.165102
-0.0706395
0.0126965
-0.0846265
-0.218799
0.0783686
-0.0200322
0.0320178
-0.364028
-0.318442
0.140119
-0.12783
0.455533
-0.274644
0.158807
0.146703
0.11795
-0.833499
-0.663533
-0.721601
-0.0571997
0.116045
-0.231717
-0.238415
-0.0970489
0.0616584
-0.137244
0.604971
0.649676
0.511511
0.43133
-0.245255
-0.0338095
-0.271564
0.285627
-0.286908
-0.149745
-0.357837
0.239096
-1.04241
0.534566
0.130311
0.6794
0.1246
-0.11184
0.105282
-0.521948
0.141404
-0.184804
-0.117877
-0.0281759
0.548294
0.486003
0.208731
0.142026
0.15951
0.605231
0.312804
-0.0496525
0.134351
0.386404
-0.0133858
-0.148255
0.525912
0.488148
0.0202987
-0.119881
-0.138028
-0.367883
-0.0262709
-0.440603
-0.296037
-0.273614
-0.0951348
-0.33264
-0.48229
-0.381309
-0.158677
-0.113501
0.103226
-0.0324749
-0.122493
-0.423497
-0.7167
0.247614
0.510694
-0.602217
-0.702617
-0.996794
-0.148692
-0.0824912
0.0139859
-0.523273
-0.147058
-0.379741
-0.622945
-0.335806
-0.279461
0.0701371
-0.173783
0.247473
-0.0988123
-0.591244
-0.853149
-0.868701
-0.64334
0.330024
0.493095
0.560267
-0.538741
-0.33019
-0.141036
-0.765327
-0.580428
-0.652478
-0.614143
-0.412842
-0.367593
-0.296472
0.439513
0.476119
0.347304
0.274349
-0.528
-0.56997
-0.623307
-1.10425
-1.08212
-1.10903
-0.0341996
0.261
-0.15755
-0.294377
0.654787
-0.565235
-0.612442
0.719596
0.489601
0.445739
-0.164138
-0.555116
0.632676
0.628243
0.648883
0.205284
-0.0368385
-0.0543388
-0.127082
-0.334597
-0.409653
-0.259086
-0.0792176
0.158128
0.0526024
0.0258394
-0.221032
0.132222
-0.10495
-0.166343
-1.01703
0.920758
1.01136
0.929589
-1.14895
-1.42273
-1.08269
1.28397
0.897909
-0.662171
-0.623684
-0.817289
-0.575904
0.753305
0.81085
0.851795
0.23405
-0.724455
-0.742464
-0.18288
-0.333829
-0.230349
0.400618
0.0853846
0.288367
0.0779989
0.166079
0.332268
-0.107461
0.0501447
0.538577
0.345765
0.26897
0.275509
0.251064
0.259778
0.536764
-0.31195
-0.140456
-0.18626
0.00286108
0.386558
0.312232
-0.24384
-0.36001
-0.292843
0.0900239
-0.282214
-0.315621
-0.106804
-0.219724
-0.0877744
-0.33414
0.219168
0.779993
0.0655489
-0.55284
-0.88041
0.247486
0.445438
-0.190654
-0.167313
-0.713977
-1.07968
-1.00226
0.0693858
0.146995
-0.602903
0.140034
0.514808
-0.0519133
-0.0595067
0.355853
0.576767
0.640991
0.0525091
-0.342483
-0.204398
-0.269635
-0.825729
-0.408264
-1.06917
-0.153015
0.0121203
0.122915
-1.08485
-1.35351
-1.50678
0.330319
0.356963
0.0140612
-0.332411
-0.771255
-0.446041
-0.81072
-0.507602
0.159813
-0.380236
-0.310673
-0.284502
0.70616
0.779987
0.840334
0.525186
-1.48636
-0.0570348
-0.147476
0.628172
0.0282744
0.265743
-0.22446
-0.308656
-0.0750293
-0.125685
-0.2752
0.263991
0.101527
-0.107944
-0.131969
-0.0943439
-0.17216
-0.250005
-0.154933
-0.1839
0.149093
-0.186221
0.243366
0.142847
0.258919
-0.524399
-0.998568
-0.336336
0.28852
0.604132
0.222017
-0.764962
-1.02381
-0.826812
-0.696585
-0.348578
-0.719787
0.259255
-0.238981
-0.0835695
0.00608076
0.021829
0.477112
0.347848
0.107353
-0.231328
-0.371157
-0.592575
-0.304611
-0.195544
-0.229383
-0.164326
-0.19299
-0.254117
0.0455161
-0.779998
-0.712795
-0.899581
0.36835
0.489847
0.423572
-0.145783
-0.310434
-0.489189
-0.193938
-0.0368585
-0.102791
-0.518526
-0.0813767
-0.624944
0.89401
1.27628
0.698055
-0.116345
-0.0601275
0.226419
-0.30792
-0.447346
-0.66508
-0.433054
0.131927
0.079483
-0.2303
-0.43602
-0.473241
-0.326267
-0.38542
0.0459791
0.106039
-0.0776471
-0.0153012
1.12438
0.912447
0.189087
0.0745443
0.278213
0.222693
-0.264505
-0.312502
0.121536
0.114519
-0.285629
-0.688083
-0.177836
-0.743167
-0.13696
-0.172621
-0.0202983
-0.0800987
0.480838
0.68041
0.573801
-0.500127
-0.561104
-0.506978
0.517526
0.09681
0.379799
0.104105
0.888867
0.994434
-0.999183
0.564166
-0.255169
0.336247
0.562768
0.123491
0.0831652
0.0443814
0.21842
0.579365
-0.0379558
-0.345714
-0.820906
-0.835988
-0.455057
0.79357
0.56331
0.190604
-0.056248
0.0680847
0.0456362
-0.203664
-0.232048
-0.664149
0.0973534
-0.0633073
0.0130989
-0.147138
-0.138448
0.105724
0.218934
0.327875
0.169564
-0.462216
-0.32129
-0.827429
0.179126
-0.120846
0.014502
0.596387
0.232945
0.109776
0.321579
0.175588
0.493014
-0.489782
-0.446293
0.193991
0.106236
0.195069
-0.918507
-0.971739
-1.01337
-0.174336
0.35228
-0.101062
0.525535
0.561627
0.588269
0.53038
0.579056
0.0448769
-0.288024
0.278199
-0.361305
-0.434676
-0.216857
-0.814719
-1.31495
-0.961815
0.634745
-0.238335
-0.0468768
0.0719695
-0.139388
-0.64246
-0.184682
-0.655051
0.277797
0.15792
0.104949
-0.234497
0.743747
-0.0577058
0.0444575
-0.546265
-0.190741
-0.44615
-0.616873
0.70335
0.101373
0.559427
0.393513
0.0281597
0.299241
-0.91968
-0.934328
-0.0308906
0.61897
-0.414888
-0.500062
0.441898
0.978872
0.747195
0.794215
0.076045
0.29066
0.270349
0.192812
0.457701
0.587941
0.187575
-0.0977311
-0.19569
-0.274969
-0.723747
-0.184416
-0.952521
-0.956775
-0.984765
-0.724562
0.894542
0.0840722
-0.579311
0.174176
0.706259
0.692881
-0.733568
-0.741357
0.0325826
-0.159752
0.293768
-0.423684
-0.346324
-0.884835
-1.14934
0.120152
-0.464816
-0.497098
0.519084
0.286413
0.0342795
-0.162856
0.250219
0.372129
-0.0194117
0.0791316
0.00759353
0.164987
0.0319828
0.0952481
0.633334
0.767931
-0.129629
-0.259006
-0.909201
-0.465489
-0.704778
0.617271
0.548017
0.204764
0.149987
-0.109889
-0.138369
-0.510551
-0.445833
0.658429
0.609638
-0.517773
-0.0869281
0.24946
0.369475
0.826005
0.601289
0.0612992
-0.688867
-1.08895
0.682914
0.948192
-0.158231
0.0286268
-0.140798
0.176844
0.199454
0.105975
0.02163
-0.794011
-1.27179
-0.907015
1.00161
0.932177
-0.630411
-0.410517
0.583615
-0.289077
-0.180348
-0.0906994
-0.0709698
-0.129237
-0.0734936
0.0602108
0.1697
0.0583978
-0.442031
-1.06749
-0.242341
-0.26744
-0.400197
0.200097
-0.102053
0.158352
-0.00543535
-0.131317
-0.886098
0.602384
0.0265089
-0.394354
-0.0270211
0.763069
-0.365156
0.559084
-0.176405
-0.365909
-0.142487
-0.207114
-0.285986
0.248181
0.0153611
0.326831
0.652756
-0.69392
-0.663214
-0.294586
0.144143
0.169953
0.0498286
-0.316869
-0.608431
-0.355085
-0.588132
-0.0818929
-0.232329
-0.359813
-0.322982
-0.147274
0.525613
-0.203131
0.0859463
-0.0194709
0.94807
-0.282727
-0.557372
-0.403178
-0.688502
0.624879
0.0314998
0.109966
0.182653
0.205536
-0.00213543
-0.267486
-0.680751
0.371393
0.399681
-0.627268
-1.11743
-0.932871
-0.428426
-0.408028
-0.328425
0.194436
-0.148567
-0.327379
0.191271
-0.580178
-0.552957
-0.263522
-0.256592
-0.50194
-0.188095
0.236154
0.425805
0.2024
0.261721
-0.691672
0.319328
0.33266
-0.177373
-1.14663
-0.933079
-1.19099
0.00472717
0.0504881
0.0897786
-0.013401
-0.129676
-0.200107
-0.266381
-0.474334
-0.671277
-0.495587
0.244315
1.24408
-1.16501
-0.793396
-1.17248
-0.675669
-0.840254
-1.01635
0.276067
0.548864
0.438117
0.0178307
-0.28447
-0.254563
-0.471758
1.36655
0.939948
1.18942
0.440395
0.169753
-0.0730489
-0.792904
-1.25538
0.126184
-0.125222
-0.12713
-0.448207
-0.0137304
-0.116845
-0.807305
-0.651774
-0.0507587
0.283857
0.140302
0.0821737
-0.633831
-0.135754
-0.707615
-0.213017
-0.463766
-0.119025
0.382093
-0.0731614
-0.608653
-0.0403451
-0.214174
-0.204067
0.148698
0.165386
0.036129
-0.575614
-0.582001
-0.527201
0.241401
0.432284
0.319346
-0.881114
0.311419
0.958845
0.567101
0.82105
-0.0729714
0.842545
0.646793
0.549846
0.179967
-0.24453
-0.323749
-0.463888
-0.404664
-0.238558
1.39129
1.18555
1.26603
-0.0967645
0.643235
0.197426
0.778859
0.247424
0.503754
0.187582
-0.223698
-0.0283421
-0.282492
-0.323697
-0.479523
-0.268617
0.775646
-0.142982
0.0371832
0.213602
-0.11537
-0.41148
0.589869
0.0387879
-0.219039
0.666148
-0.28921
-0.311317
-0.423616
0.494187
0.443395
0.428447
-0.493153
-0.349198
-0.333049
0.347768
-0.210737
0.163151
-0.0204494
0.0776443
0.423464
-0.0982311
-0.190361
0.088209
-0.222226
-0.427307
-0.0311185
0.176835
0.0393353
0.120905
0.264527
0.0134339
-0.299745
-0.155522
-0.13719
0.177833
0.0427788
-0.708638
-0.596267
-0.721358
-0.470519
0.59057
-0.374875
0.685749
-0.299874
0.217753
0.257459
0.295473
-0.687394
-0.604238
-0.918909
0.700128
-0.701905
0.0193155
-0.0294457
-0.115852
0.871093
0.464367
-0.279797
-0.36669
-0.0157771
-0.388193
-0.195321
-0.157318
0.350377
0.124342
-1.06824
-1.07511
-1.03855
0.171951
-0.232709
-0.223539
-0.15853
1.40143
1.1741
0.173033
0.442281
-0.25507
-0.227098
0.0812469
0.209976
-0.00735553
-0.291611
0.480297
-0.37304
-0.188599
-0.172963
1.11948
0.644935
0.936588
1.14039
0.566577
-0.366652
0.367073
0.200623
0.0552819
0.760145
0.443793
0.439439
0.388652
0.516439
0.257352
0.230016
0.71898
-0.0468607
0.791301
-0.857107
-1.04751
0.376728
0.29325
0.0104274
-0.12029
-0.224834
0.145789
-0.340089
-0.549893
-0.721589
-1.01386
0.0331467
-1.19419
-0.179519
-0.0337895
0.182255
0.230411
0.575302
0.0929344
0.544786
0.559291
0.0879378
0.137431
0.420484
0.641878
0.291559
-0.248371
-0.13748
-0.208093
0.0185826
0.196113
0.138579
-0.0280014
-0.264121
-0.0707642
-0.133057
-0.0379539
-0.391194
-0.170159
-0.0435033
-0.325399
-0.209903
-0.150687
-0.435025
-0.405471
-0.476167
-0.213385
-0.555304
-0.106816
-0.523059
0.20529
0.016187
0.315428
0.456585
0.465132
-0.90176
-0.749319
0.75209
-0.310701
-0.283824
0.703459
-0.196235
-0.257741
-0.417184
0.0397942
-0.104233
-0.10791
0.568168
-0.399128
-0.498117
-0.429471
0.915296
0.938502
0.0945964
-0.144464
0.0986442
-0.25392
-0.281589
0.23085
-0.0459002
-0.614378
-0.0603632
-0.0693576
-0.169732
-0.960956
-0.676068
-0.164394
0.477398
0.423975
0.272239
-0.83605
-0.159208
0.55914
-0.0399596
-0.116687
-0.25665
0.288346
0.38315
0.756363
0.094502
0.511708
0.298357
-1.20182
-0.383505
-0.228416
-0.36083
-0.174658
-0.25102
0.869251
-0.346914
0.365137
0.474221
0.636852
1.20972
0.236234
0.154662
0.11737
0.487267
0.341156
-0.05749
-0.14119
-0.0369119
0.175442
0.0570336
0.133962
-0.175429
-0.253706
-0.0770981
0.321586
0.38774
-0.700933
-1.01863
-0.944713
-0.466679
-0.996752
-1.01379
-0.924154
-0.135982
-0.27276
-0.00300929
-0.224114
-0.0596382
0.281758
0.275036
-0.211183
-0.401518
-0.109463
0.277875
0.319901
0.370016
0.234457
0.372848
0.367112
0.0184974
-0.0383775
-0.683059
-0.495258
-0.611731
-0.111941
-0.0132092
-0.0115386
-0.0749208
-0.163704
-0.862115
-0.513848
0.0273999
0.21952
-0.233606
-0.311174
0.291949
-0.367702
-0.0209624
0.223335
-0.298579
0.16465
0.479094
0.106016
-0.198628
0.078844
-0.562684
-0.031481
0.21661
-0.0940057
0.0147072
-0.114985
-0.24472
-0.204605
-0.0345072
-0.0357675
0.246409
-0.336757
-0.322919
-0.348133
0.325235
0.529981
-0.131405
-0.580106
-0.754569
-0.311747
-0.127793
0.177143
-1.11785
-0.0765499
0.205295
-0.152745
0.0910015
0.180426
-0.0984745
0.0993209
-0.493032
-0.492733
-0.482178
-0.0272351
-0.126157
0.0496579
0.426056
0.316089
0.595697
0.72489
0.654914
-0.566048
-0.197093
-0.168566
0.463985
-0.352064
-0.286824
-0.307133
0.322977
0.570922
-0.335345
0.365981
0.337811
0.154348
-0.277447
-0.105471
0.128422
-0.122944
0.334639
0.319893
0.354039
0.729896
0.73521
0.203258
-0.0897831
-0.776273
-1.36582
0.171466
0.25018
0.124715
-0.34986
-0.330322
-0.253393
-0.149907
-0.14544
0.477611
0.274205
0.992986
0.0671906
0.179735
0.110775
0.49098
0.153176
0.759872
-0.331804
-0.364224
-0.437362
-0.459984
0.172033
-0.158285
-0.389246
-0.300171
0.128758
0.734675
0.765838
0.239033
-0.178439
-0.499626
-0.360767
-0.351769
-0.0364186
-0.0553
0.220467
-1.25962
-1.09952
-1.22698
0.205653
0.0871366
0.443071
0.440362
0.427534
-0.184206
0.282498
-0.0123734
-0.0103007
-1.11031
-0.784501
0.172398
0.470259
0.447119
0.404881
0.257367
-0.324625
-0.208804
-0.0612568
0.903611
0.929662
1.15466
0.11161
0.544277
-0.0919844
-0.858871
0.603762
0.424502
-0.0124359
1.0371
1.02076
0.0511621
0.115258
-0.922009
-1.27373
0.225286
-0.0227157
0.0590667
0.144269
-0.098641
-0.709121
-0.196777
0.247018
0.439187
0.676687
0.284759
-0.700853
-0.524046
-0.490648
-0.401523
0.0317524
1.05173
0.256679
-0.0969001
-0.134926
-0.193799
0.142946
-0.306601
0.10195
-0.043183
-0.0891493
0.798541
-0.221911
-0.298438
-0.741881
0.161036
0.0232073
0.356895
0.411382
0.0201612
0.293474
0.0588907
-0.794452
-0.759657
0.0339418
0.397494
-0.238891
-0.193244
0.158583
-0.179862
-0.201886
0.306133
-0.297209
-0.103729
-0.0831458
0.13153
0.046304
0.505671
-0.444337
-0.301921
-0.0910379
0.873548
0.187265
0.313918
-0.198149
0.255432
0.0568436
0.101122
1.28888
0.480484
-0.153268
-0.0529505
-0.252211
-1.23795
-0.679812
-0.475156
0.238053
0.0336055
0.124521
0.633207
-0.336944
0.554091
-0.0793762
0.222804
1.01741
1.11401
1.05082
0.126775
-1.00872
-1.12816
-1.14972
0.121411
0.366481
-0.475441
0.093622
-0.192689
0.80972
0.244621
-0.114571
0.0255152
0.100816
0.0161854
-0.0732629
0.098892
0.494387
-0.606059
0.15609
-0.441786
-0.268262
-0.378198
-0.137844
-0.146486
-0.597138
-0.304233
-0.022405
-0.253148
-0.210382
-0.0810719
-0.244243
-0.128848
0.171868
1.07557
-0.0231308
-0.306432
0.0293742
0.232979
-0.531022
-0.474496
-0.328365
-0.00591258
-0.549007
0.278326
0.216055
1.07169
-0.335347
-0.509947
0.0821827
0.345495
0.199555
0.247359
0.329873
0.308596
-0.293741
-1.10848
-0.73812
-0.789087
0.00174695
0.0487051
0.136698
-0.00638072
-1.00777
-0.430913
0.160619
-0.0959844
-0.180532
1.00394
0.677866
0.649636
0.244683
-0.163941
-0.139961
0.401207
-0.472795
-0.389639
0.0665989
-0.242409
-1.16089
-0.734063
-0.202975
-0.37045
-0.925575
-0.694229
-0.808441
-0.647259
-0.427492
-0.0121438
0.0101466
0.00549187
0.425736
0.60287
0.161627
0.146914
0.128036
0.187257
-0.378588
-0.223976
0.509268
0.590968
0.761964
-0.404327
0.127994
-0.261377
-0.0130173
1.19521
1.38677
1.17271
-1.04092
-1.18027
-0.923749
0.196068
-0.242326
0.161473
-0.244302
0.395692
0.231034
0.295747
-0.15469
0.0955501
0.194067
-0.441054
-0.492458
-0.169998
-0.169677
-0.270578
-0.888089
0.465116
0.117213
-0.29538
0.115793
0.216237
-0.106572
0.0896751
-0.00790836
0.171666
0.136045
0.114393
0.297047
0.118113
0.254359
0.0548783
-0.0327683
0.19434
-0.448335
0.52287
0.327203
0.525112
0.0992801
0.226751
-0.585986
-0.619383
-0.0590006
0.466046
1.01816
-0.143991
0.0401039
-0.273551
-0.328361
-0.364932
0.155803
0.6787
0.0165943
0.076809
0.0948025
0.000524534
-0.408856
-0.588744
-0.489425
0.0083132
-1.10809
-0.363403
-0.321255
-1.00896
0.249584
-0.864368
-0.2557
-1.18056
0.613287
0.071586
-0.00186533
0.0458059
-0.503447
-0.512734
-0.0444695
-0.163379
-0.203246
-0.0515097
-0.00975419
1.15335
-0.868931
-0.49773
-0.875331
0.561128
0.396369
0.0910884
0.198766
-0.200239
0.106605
0.0266362
-0.27322
-0.997954
-1.16339
-0.3418
0.18501
-0.476363
0.439798
0.244161
-0.281187
0.192194
0.347067
0.805405
0.67917
0.787427
0.351185
0.297759
-0.212574
0.128291
0.0117423
0.13979
0.186413
-0.20709
-0.182273
-0.212709
-0.328519
0.58789
0.114838
0.284687
-0.21037
-0.232003
-0.137779
0.699436
-0.22658
0.221998
0.174544
0.193315
-0.192977
-0.0491659
0.328319
0.482027
0.339424
0.509762
0.0563033
-0.56263
-0.642345
-0.656077
0.209516
0.22577
-0.051945
-0.129027
-0.211061
-0.154174
0.167435
0.212745
0.558639
0.739523
0.782888
-0.483416
-0.0205552
0.0914363
0.223319
-0.239849
-0.0528934
-0.489265
0.207785
-0.0370517
0.00356694
0.102515
-0.135636
-0.220171
-0.157594
-0.0168422
0.085313
-0.347769
0.430967
0.594953
0.189883
0.301174
0.229094
-0.581067
0.66377
-0.989906
-0.681518
-0.497443
0.00915548
0.295444
-0.211861
-0.536367
-0.524898
0.160717
-0.0886148
-0.00713587
-0.242756
-0.12669
-0.250679
-0.424898
-0.554565
-0.396027
-1.57438
-0.151844
0.170078
0.403371
0.523572
-0.113383
0.130414
0.138639
0.373314
0.194657
-0.109953
-0.247836
-0.0559462
0.742036
0.264594
0.240974
-0.113973
-0.235213
0.0270551
-0.313584
0.21894
-0.120601
0.0944818
0.0460764
-0.257826
-0.436174
-0.95415
-0.835501
-0.708852
0.229139
0.642479
0.375379
0.257881
0.273638
0.259988
0.063714
-0.109599
-0.128542
-0.103451
-0.258117
-0.115489
-0.705723
-0.201228
-0.15757
-0.525858
-0.45122
-0.435419
-0.25902
-0.103177
0.150024
-0.778409
-0.723433
-0.784812
0.131961
-1.35086
-0.662471
-0.39691
-0.616702
-0.619991
-0.359546
-0.327825
-0.514968
-0.137584
-0.113584
-0.72595
-0.603616
-0.0711831
0.306617
-0.864964
-1.07423
-0.999496
0.354689
0.488804
0.207804
-0.525467
0.380773
-0.316381
-0.357648
-0.368546
0.27304
0.136805
0.0238865
-0.234105
0.0785093
-0.183066
-0.509994
0.157467
0.120837
0.122448
0.660527
-0.122932
-0.022452
-0.0943964
-0.00933325
0.973053
1.03671
0.82947
-0.589229
-0.559823
0.0156788
0.137238
0.238606
0.355494
0.042235
-0.503035
0.153933
-0.106467
0.137639
0.628653
-0.242053
-1.08966
-1.21198
-1.18708
-0.917338
0.91846
0.840867
-0.0221199
-0.109745
-0.884437
-0.424651
-0.726678
-0.54979
-0.508233
-0.391891
-0.12076
-0.504335
-0.514894
-0.0344635
1.13796
-0.557662
-0.354693
-0.306391
-0.131747
-0.306006
-0.373343
-0.26754
0.355832
0.19954
0.232223
0.00286707
0.2503
-0.303632
1.27838
-0.291926
-0.14138
-0.156077
-0.131184
-0.402776
-0.462622
-0.00577011
-0.404058
-0.967711
-0.0472108
-0.147163
-0.519577
-0.308742
-0.397751
-0.211058
-0.130882
-0.163829
-0.108022
-0.0346408
-0.220773
0.280367
0.512123
-0.373715
-0.402132
-0.337922
0.240442
0.559536
-0.288892
0.505383
0.567837
0.185228
0.19164
-0.552733
-0.436247
-0.394058
-0.0544413
-0.268732
-0.132312
-0.306331
-0.245421
-0.459032
-0.571936
-0.248395
-0.214441
-0.701309
0.143928
-0.149664
-1.14423
-0.0576541
-0.239092
-0.31243
-0.745581
-0.192903
0.237424
0.186066
0.154413
0.107432
-0.157558
0.120497
0.998817
-0.020949
0.91401
-0.0165785
-0.366393
-0.0872403
0.0854765
-0.211532
-0.630041
-0.678441
-0.501937
1.04467
1.11107
1.07702
-0.189911
-0.376979
-0.426692
0.29982
0.571349
-0.150672
0.0211825
-0.110317
-0.0890855
-0.0791883
0.0972164
0.113285
-0.606387
-0.22636
0.370893
0.474567
0.0657817
-0.113171
-0.251939
-0.523835
-0.265163
-0.401374
-0.549029
0.0554957
0.170055
0.150532
-0.0681638
-0.515622
-0.359793
0.303264
0.0167423
0.134815
-0.0706688
0.0859336
0.00988366
-0.0870616
-1.18906
-0.48141
-0.51054
-0.431249
0.00524138
-0.714331
0.663847
1.009
0.35075
-0.219638
0.13649
-0.128299
0.0296683
0.22174
0.352677
0.042642
0.0542179
0.0187737
0.446339
1.01974
0.870518
0.211241
0.478816
-0.255726
0.164158
-0.22871
0.16921
0.785678
0.623339
0.639096
-0.0570717
0.486935
0.447532
0.341079
0.0316933
0.204486
0.218227
0.0451653
-0.310605
0.279657
0.223137
0.326028
-0.657712
0.254403
0.197089
0.3019
0.105597
-0.316902
0.134609
-0.605027
-0.536038
-0.63662
-0.679769
-0.732439
-0.0576591
-0.41544
0.0150516
-0.386473
0.0604733
-0.563399
0.30144
0.431595
0.198079
-0.423753
-0.386037
-0.323097
-0.295501
-0.220908
0.809387
0.360749
0.0827034
-0.226307
1.01367
0.934653
0.986654
0.165714
0.206418
0.225984
-0.114754
-0.636833
-0.543868
0.550187
0.038896
-0.662504
-0.426823
-0.490746
-0.771403
-0.852048
0.278288
-0.36241
-0.464005
-0.17562
-0.522482
-0.545902
-0.700409
1.01152
0.803412
0.631048
0.816845
-0.650215
-0.598469
-0.675408
0.233002
-0.515146
-0.682245
-0.158155
-0.0399541
-0.175122
-0.193131
-0.809448
0.112502
-0.753822
-0.608138
0.91825
1.19567
1.27523
-0.322893
-0.758932
-0.242066
-0.32756
0.099418
0.0227996
-0.0486369
0.227948
0.016817
-0.099051
0.375886
0.570617
0.642984
-0.0920099
0.307524
-0.501107
0.325747
0.38937
0.415594
1.35166
1.36358
1.1187
-0.0424428
-0.997473
-1.20202
-1.23457
-0.106403
-0.369639
-0.119776
-1.11364
-1.15648
-1.19059
0.612984
0.876215
0.864391
-0.156068
0.0477704
0.100579
-0.517163
0.240248
-0.24231
-0.15395
-0.167031
0.652917
0.700451
0.0754019
0.230687
0.0724138
0.0271687
0.0736803
-0.13419
-0.0645208
1.14421
0.144951
0.179816
-0.583195
0.2356
-0.124813
-0.242713
1.01048
0.625257
-0.978479
-0.397087
-0.228354
-0.258589
-0.439618
-0.15745
0.350596
0.351749
0.320362
0.527192
-0.509705
-0.465416
0.0652873
-0.221628
-0.0249515
-0.0300003
0.136352
0.420167
0.135874
0.118516
0.119365
-0.333502
0.117431
-0.0164183
-0.727442
-0.515023
-0.318109
0.247716
0.573449
-0.145911
-0.0253636
0.133982
0.0402312
0.138047
0.108741
0.108949
-1.21664
-0.814051
-0.6611
-0.254166
0.0776273
0.0285782
-0.0931442
-0.206296
-0.133619
-0.235317
-0.172857
0.000247015
-0.0831293
-0.513558
-0.343923
-0.00682926
-0.0879544
1.04908
0.867048
0.26968
0.85339
0.335533
0.329826
-0.185201
-0.0685373
-0.284308
-0.11593
0.566115
-0.146133
0.0158844
-1.15613
-1.13849
0.123766
-0.171855
0.165157
0.278212
0.219266
-0.0605032
0.0136652
0.43971
-0.509712
0.180692
0.0824498
0.244172
0.0545349
0.189591
0.193313
-0.126182
0.148939
-0.258428
0.447233
-0.237826
-0.366259
-0.621069
-0.447848
-0.094814
-0.878709
-0.966614
-0.923985
-1.21487
0.851707
0.493603
-0.309237
0.922533
-0.394939
0.173263
0.137814
0.223774
0.203174
0.0765277
0.178197
-0.099007
0.348817
0.0637595
-0.0196576
0.262738
0.504411
0.798038
-0.760312
-0.845837
-1.25928
-0.0279692
0.127465
0.0802505
0.109818
0.250035
0.283501
0.222905
0.64744
0.763033
0.922488
1.11113
-0.360784
0.320174
-0.0338082
0.197056
0.375884
-0.110769
-0.165606
-0.205532
-0.123227
0.263771
0.570172
0.0525344
-0.234324
-0.305283
0.0263224
-0.344668
-0.256165
-0.272397
0.371137
0.240318
0.351182
0.314381
-0.739426
0.236805
-0.671418
-0.534047
-0.610755
0.627814
0.258224
-0.382697
0.178656
0.412868
0.583697
0.805949
-0.377529
-0.131808
-0.375664
0.140513
0.11583
-0.858448
-0.616814
-0.614227
-0.858587
0.617938
-0.207206
0.427665
0.320856
0.24095
0.335156
-0.476763
0.943328
0.0729237
-0.0911922
0.693226
-0.267106
-0.278212
0.380158
0.426746
0.62308
-0.327366
0.0996627
-0.603844
-0.173666
-0.120884
0.488426
0.233148
-0.0423051
-0.435776
-0.492024
-0.0314191
-0.446482
-0.506599
-0.697344
0.0724039
-0.692776
0.602138
0.537541
0.270485
-0.266345
-0.348927
-0.367992
0.349581
0.63594
-0.165133
1.00284
1.23652
1.19854
0.133226
0.253328
-0.131358
0.0697888
-0.158635
0.13849
0.214231
0.0279348
-0.406784
-0.67624
0.3274
-0.660841
-0.0641631
1.16875
-0.0153126
0.164386
0.340998
0.966346
0.915024
0.845783
0.247335
0.292029
-0.111085
-0.555754
-0.278702
0.191892
0.246892
0.0928497
0.0508281
0.251133
0.297922
-0.155711
-0.0853282
0.807297
0.855094
0.0995525
0.240438
0.984254
0.82244
-0.112951
-0.201063
-0.165201
0.258914
0.343261
0.196607
-0.229927
0.104774
-0.0589058
0.202533
-0.170555
-0.452262
0.192279
0.0296971
-0.0598613
-0.257214
-0.2663
-0.178913
-0.515912
-0.326248
-0.399035
-0.148941
-0.1717
-0.27508
-0.318486
0.0382671
-0.201526
0.0649321
-0.0428776
-0.209937
-0.242751
0.685017
-0.445233
-0.997995
-1.14211
-0.650835
-0.084682
0.0450276
0.105054
-0.192792
-1.13341
0.274175
0.293278
0.259394
-0.181842
-0.158727
-0.842217
-0.272812
-0.255266
-0.108934
-1.16135
-0.679115
-0.648037
-0.0508373
0.502678
-0.168057
-0.146241
-0.55775
-0.293534
-0.300566
-0.223502
-0.164498
-0.106295
-0.100925
-0.918188
0.0367232
0.35411
0.55603
0.501763
0.332804
-0.32337
0.0723795
0.078936
-1.19152
-0.216338
0.22858
-0.777101
-0.686207
-0.463143
-0.423503
0.367282
0.487995
0.0907564
-0.114148
0.587702
0.633009
0.459291
-0.0103956
-0.319136
-0.480776
-0.54528
-0.599125
0.111152
-0.17473
0.209794
0.245517
0.268192
0.147973
-0.399631
-0.421523
-0.74083
-0.767321
-0.171633
-0.102041
0.0184934
0.202354
0.233158
0.184973
-0.40856
-0.210617
-0.177803
-0.548163
0.557523
0.694615
0.60878
0.601488
-0.157995
-0.43147
-0.366101
-0.348677
-0.103682
-0.237252
-0.266009
-0.0160169
0.0357594
-0.407942
-0.28625
-0.218323
0.160481
-0.651556
-0.334151
-0.676757
0.230124
-0.0387511
0.264848
-0.31194
0.038774
-0.425214
0.510798
-1.14862
-1.12782
0.195094
-0.496062
-0.0906184
-0.157835
-0.0583234
0.219743
0.168727
0.229908
-0.229968
0.725413
-0.658434
-0.126207
-0.027088
0.0334567
-0.476649
0.0394691
-0.277014
0.944609
0.263639
0.395298
-0.35309
-0.555398
-0.360293
-0.158948
-0.171262
0.826388
0.687829
-0.572246
-0.628255
-0.1039
-0.213468
-0.297701
0.527688
0.506738
0.516843
0.545347
0.62461
0.0959037
0.333004
0.226782
0.198611
0.128219
0.922581
-0.112366
0.342399
0.748518
-0.275967
-0.629246
-0.779473
-0.719544
0.0680734
0.135565
-0.0167181
0.0615747
-0.0460292
0.184068
0.582719
-0.0183851
0.649058
0.144493
0.0691755
-0.267611
-0.132665
-0.336731
-0.293815
-0.23884
0.415214
0.29298
0.158891
-0.599741
-0.0231003
-0.243087
-0.199981
-0.0110499
0.529513
-0.48304
-0.45199
0.557288
-0.139018
-0.34139
-0.170712
0.443892
0.5806
0.465661
-1.19583
-1.02318
-0.212861
0.390749
0.251001
0.291469
-0.432552
-0.503973
-0.221815
-0.446661
-0.16994
0.435838
-0.0209943
0.434795
0.214866
-0.152262
-0.403475
0.12297
-0.0379684
0.938268
1.00654
0.433882
0.725183
0.242337
-0.188293
-0.387837
-0.449189
0.467248
0.678074
0.203598
-0.158716
0.0576139
0.141209
0.133418
0.335769
-0.287585
-0.289086
-0.0881144
0.0832145
-0.260273
0.23092
0.294546
0.264256
0.557304
0.293625
0.382641
0.103721
-0.708276
-0.0660663
-0.0232048
-0.109851
-0.291217
-0.0896499
0.203075
0.101991
-0.26956
-0.0464911
0.0482318
0.0605109
0.352978
0.28207
0.334374
0.279132
0.0167292
0.382141
0.779262
0.0342648
-0.295996
0.00799971
-0.179652
0.228559
0.807964
1.00334
1.27123
0.159719
0.115567
0.294832
-0.097089
0.272019
-0.102562
-0.211011
-0.335198
0.0791246
0.603993
0.00783269
0.270942
-0.011858
0.615068
-0.058085
-0.158066
0.259337
-0.662428
-0.0865102
0.63564
0.694807
0.872779
0.291587
0.103174
-0.359063
-0.166244
-0.0281504
0.172501
-0.00125505
0.093625
0.195308
0.159427
0.0887376
0.449784
0.12452
0.246492
-0.365145
-0.286214
-0.400245
-1.06218
-0.885937
0.154501
0.284023
-0.031415
0.590678
0.911005
0.644141
1.08619
0.101071
0.266498
0.754007
-0.289636
-0.781195
0.159941
0.163045
-0.11737
0.586743
-0.0167259
-0.198336
-0.286247
-0.186658
0.00626157
-0.12883
-0.126319
0.0372835
0.043217
0.218837
0.0395329
-0.255849
-0.412924
-0.267205
-0.421547
-0.10018
-0.267925
-0.432341
-0.0193492
-0.159485
-0.271025
-0.336223
1.04771
-0.888222
-0.143657
-0.00525778
0.0419521
-0.624346
0.373694
0.328409
-0.266186
0.311614
-1.21619
-1.13592
1.02898
0.879641
0.928129
1.24138
-0.488737
-0.218055
-0.299121
0.0194799
-0.149601
-0.273828
-0.345426
-0.61785
-0.392748
-0.463227
-0.0369036
-0.262675
-0.155668
0.431415
-0.117175
-0.157772
-0.467537
0.711114
-0.459949
-0.108205
-0.314995
-0.0921621
0.0459238
-1.02504
-1.23777
0.075192
0.250136
-0.00461818
-0.275736
-0.260405
-0.21933
-0.806837
0.100391
-0.697314
0.69343
0.947282
0.796943
0.630521
0.406832
-0.00417033
0.0620462