<VTKFile type="UnstructuredGrid" version="0.1" byte_order="LittleEndian">
<UnstructuredGrid>
<Piece NumberOfPoints="252" NumberOfCells="252">
<PointData Scalars="abs_Uinc_p">
<DataArray type="Float64" Name="real_part_Uinc_p" format="ascii">
0.244859
-0.0638755
0.985317
0.99949
0.999921
0.981591
0.995368
0.991203
0.431443
0.730092
0.687146
0.976039
0.936915
0.615568
0.936915
0.976039
-0.993098
-0.991531
-0.977969
-0.941086
0.689016
0.952872
0.994716
0.762671
0.689016
0.243617
-0.890489
-0.995478
0.618306
0.699435
0.99949
0.967908
-0.382223
-0.672179
-0.890489
-0.995478
0.408082
0.417072
-0.956014
-0.761131
-0.427934
-0.0049687
-0.903641
0.699435
0.618306
0.243617
-0.275431
-0.727551
0.431563
-0.00496863
0.309803
-0.306363
0.243617
-0.306363
0.309803
0.762671
0.994716
0.762671
0.258442
0.809078
0.309803
-0.821914
-0.342451
-0.0888588
0.471941
0.309803
0.809078
-0.821914
-0.342451
0.881591
0.471941
-0.306363
-0.805114
-0.821914
-0.999917
-0.0888588
-0.614383
-0.0638755
-0.382223
0.967908
0.880223
0.881591
-0.275431
0.243617
0.952872
0.443785
0.487403
-0.672179
-0.382223
0.72963
0.880223
-0.956014
-0.995478
-0.672179
0.546399
0.443785
0.417072
0.880223
0.985317
0.784579
0.86677
0.729631
0.515311
0.937188
0.546399
0.618306
0.417072
0.487403
0.443785
0.443785
0.546399
0.431563
0.784579
0.86677
-0.998879
-0.863268
0.790074
0.983464
0.904761
0.0191497
-0.440485
0.937188
0.999921
-0.826492
0.995368
-0.432996
0.904761
0.730092
0.154251
0.981591
0.985317
0.99949
0.689016
0.967908
0.952872
0.0191497
0.72963
0.880223
-0.826492
-0.440485
0.515311
0.244859
-0.0638756
-0.956014
-0.995478
0.790074
-0.382223
-0.614383
-0.275431
-0.672179
-0.761131
-0.0888588
-0.614383
-0.999917
-0.805114
-0.805114
0.994716
-0.427934
0.258442
-0.0888588
1
-0.432996
-0.863268
0.809078
0.983464
-0.999917
0.471941
-0.977969
-0.727551
-0.342451
0.471941
-0.998879
-0.821914
-0.306363
0.881591
-0.941086
0.994716
0.881591
-0.342451
-0.999917
0.809078
-0.941086
-0.977969
-0.727551
-0.977969
0.145877
-0.322993
0.689016
0.952872
-0.805114
0.983464
-0.00496863
-0.427934
-0.761131
-0.427934
0.258442
0.258442
-0.890489
0.762671
-0.727551
0.515311
0.729631
-0.614383
0.985317
0.937188
0.86677
0.937188
0.618306
0.546399
0.790074
-0.275431
0.687146
-0.956014
0.983464
0.790074
0.431563
-0.761131
0.784579
-0.0638756
0.244859
0.967908
0.154251
0.699435
0.86677
0.784579
0.487403
0.145877
0.615568
0.417072
0.408082
0.515311
-0.685894
-0.956163
-0.918698
0.431443
-0.956163
-0.993098
-0.918698
-0.903641
-0.991531
-0.903692
0.99949
1
-0.685894
0.244859
-0.322993
-0.0049687
0.699435
0.431563
-0.890489
0.487403
-0.941086
</DataArray>
<DataArray type="Float64" Name="imag_part_Uinc_p" format="ascii">
0.969559
0.997958
0.170734
-0.0319351
-0.0125494
-0.190997
0.0961369
0.132352
-0.90214
-0.683349
0.726519
0.217594
-0.349557
-0.788083
-0.349557
0.217593
0.117291
-0.129871
0.208749
-0.338167
0.724746
0.303372
-0.102664
-0.646786
-0.724746
-0.969872
-0.455004
-0.0949936
0.785937
0.714696
0.0319351
0.251303
0.92407
0.740389
0.455004
0.0949936
-0.912945
-0.908874
-0.293321
-0.648599
-0.90381
-0.999988
-0.42829
-0.714696
-0.785937
0.969872
0.961321
0.686053
-0.902083
-0.999988
-0.950801
-0.951915
0.969872
0.951915
0.950801
0.646786
0.102664
0.646786
0.966027
0.587702
0.950801
0.569612
0.939536
0.996044
0.88163
-0.950801
-0.587702
-0.569612
-0.939536
0.472013
0.88163
0.951915
0.59312
-0.569612
0.012903
0.996044
0.789008
-0.997958
-0.92407
-0.251303
-0.474559
0.472013
-0.961321
-0.969872
-0.303372
0.896133
0.873177
-0.740389
-0.92407
-0.683842
-0.474559
0.293321
-0.0949935
-0.740389
0.837525
0.896133
0.908874
0.474559
-0.170734
-0.620029
-0.498708
0.683842
0.857003
-0.348826
-0.837525
-0.785937
-0.908874
-0.873177
-0.896133
-0.896133
-0.837525
-0.902083
-0.620029
-0.498708
-0.0473406
0.504746
-0.613012
-0.181104
-0.42592
-0.999817
-0.89776
-0.348826
-0.0125494
-0.562949
0.0961369
0.901396
-0.42592
-0.683349
0.988032
-0.190997
-0.170734
0.0319351
0.724746
0.251303
0.303372
-0.999817
0.683842
0.474559
-0.562949
-0.89776
0.857003
0.969559
0.997958
-0.293321
0.0949935
-0.613012
0.92407
-0.789008
0.961321
0.740389
-0.648599
-0.996044
-0.789008
-0.012903
-0.59312
-0.59312
0.102664
-0.90381
0.966027
-0.996044
0
0.901396
0.504746
0.587702
-0.181104
0.012903
-0.88163
0.208749
0.686053
-0.939536
-0.88163
-0.0473406
0.569612
-0.951915
-0.472013
-0.338167
-0.102664
-0.472013
0.939536
-0.012903
-0.587702
0.338167
-0.208749
-0.686053
-0.208749
-0.989303
-0.946401
-0.724746
-0.303372
0.59312
0.181104
0.999988
0.90381
0.648599
0.90381
-0.966027
-0.966027
-0.455004
-0.646786
-0.686053
-0.857003
-0.683842
0.789008
0.170734
0.348826
0.498708
0.348826
0.785937
0.837525
0.613012
-0.961321
0.726519
0.293321
0.181104
0.613012
0.902083
0.648599
0.620029
-0.997958
-0.969559
-0.251303
0.988032
0.714696
0.498708
0.620029
0.873177
-0.989303
-0.788083
0.908874
0.912945
-0.857003
-0.727702
0.292834
0.394961
-0.90214
0.292834
0.117291
0.394961
-0.42829
-0.129871
0.428183
-0.0319351
0
-0.727702
-0.969559
-0.946401
0.999988
-0.714696
0.902083
0.455004
-0.873177
0.338167
</DataArray>
<DataArray type="Float64" Name="abs_Uinc_p" format="ascii">
1
1
1
1
1
1
1
1
1
1
1
1
1
1
1
1
1
1
1
1
1
1
1
1
1
1
1
1
1
1
1
1
1
1
1
1
1
1
1
1
1
1
1
1
1
1
1
1
1
1
1
1
1
1
1
1
1
1
1
1
1
1
1
1
1
1
1
1
1
1
1
1
1
1
1
1
1
1
1
1
1
1
1
1
1
1
1
1
1
1
1
1
1
1
1
1
1
1
1
1
1
1
1
1
1
1
1
1
1
1
1
1
1
1
1
1
1
1
1
1
1
1
1
1
1
1
1
1
1
1
1
1
1
1
1
1
1
1
1
1
1
1
1
1
1
1
1
1
1
1
1
1
1
1
1
1
1
1
1
1
1
1
1
1
1
1
1
1
1
1
1
1
1
1
1
1
1
1
1
1
1
1
1
1
1
1
1
1
1
1
1
1
1
1
1
1
1
1
1
1
1
1
1
1
1
1
1
1
1
1
1
1
1
1
1
1
1
1
1
1
1
1
1
1
1
1
1
1
1
1
1
1
1
1
1
1
1
1
1
1
1
1
1
1
1
1
1
1
1
1
1
1
</DataArray>
</PointData>
<Points>
<DataArray type="Float64" Name="Nodes" NumberOfComponents="3" format="ascii">
-0.87630668076889695 0.48175367278288461 0 
-0.86074202784517662 0.50904141432792394 0 
0.95105651658034551 -0.30901699349721679 0 
0.9408807693160548 -0.33873791924027169 0 
-1.2572645455811271 0.44017108418111428 0 
-1.266245939201105 0.4113487785756646 0 
-1.2518227814665459 0.53013416999020202 0 
-1.25 0.5 0 
-1.312872313061999 0.66578066467846475 0 
-1.2942540335457671 0.64201618671057781 0 
-1.53013417002029 0.25182278147019971 0 
-1.559828915984963 0.25726454562206152 0 
-1.58865122169747 0.2662459393046912 0 
-1.6161807928432219 0.27863599349867141 0 
-1.588651221997047 0.7337540605816939 0 
-1.559828916184369 0.74273545432878918 0 
-1.7337540607631361 0.58865122151862415 0 
-1.721364006587129 0.61618079267974324 0 
-0.48175367544770797 0.87630667930389783 0 
-0.45399050102082861 0.89100652353552212 0 
-0.5877852509012087 -0.80901699538576022 0 
-0.61290705219334829 -0.79015501350789408 0 
0.30901699516189118 -0.95105651603946006 0 
0.27899110672892191 -0.96029368547656879 0 
0.58778525379630264 -0.80901699328235133 0 
0.56208337933128916 -0.82708057326932671 0 
0.80901699551015693 -0.58778525072999133 0 
0.79015501360443485 -0.61290705206888862 0 
0.98768834067081901 -0.15643446456239821 0 
0.98228725083291424 -0.1873813140393554 0 
-0.9408807693160548 0.33873791924027169 0 
-0.92977648630236087 0.36812455163875679 0 
-0.84432792641783072 0.53582679353590212 0 
-0.82708057530368673 0.56208337633781935 0 
-0.80901699551015693 0.58778525072999133 0 
-0.79015501360443485 0.61290705206888862 0 
-1 0 0 
-0.99950656036934626 0.031410758963106349 0 
-0.77051324411217093 0.63742398813328172 0 
-0.75011107106367292 0.66131186369799044 0 
-0.72896862897845582 0.68454710427060494 0 
-0.70710678286330397 0.70710677950979117 0 
-1.7057459668363431 0.64201618615699507 0 
-0.98228725063975919 -0.1873813150519095 0 
-0.98768834053608445 -0.15643446541307851 0 
-0.56208337933128916 0.82708057326932671 0 
-0.53582679640856989 0.84432792459478034 0 
-0.50904141711147788 0.86074202619898743 0 
-0.68454710433943211 -0.72896862891382275 0 
-0.70710677958314294 -0.70710678278995209 0 
-0.062790519341618625 -0.99802672844008034 0 
-0.094108313026724816 -0.99556196463066227 0 
-0.56208337646484929 -0.82708057521735723 0 
0.094108313531618359 -0.99556196458293578 0 
0.062790519668725869 -0.99802672841950046 0 
-0.27899110517471432 -0.96029368592810782 0 
-0.30901699349992939 -0.95105651657946422 0 
-0.27899110672892191 0.96029368547656879 0 
-0.24868988780537241 0.96858316096417418 0 
0.031410758967821799 0.99950656036919805 0 
0.062790519341618625 0.99802672844008034 0 
-0.18738131405188921 -0.98228725083052326 0 
-0.21814324072400021 -0.9759167620890784 0 
0.39714789167744158 -0.9177546252327814 0 
0.36812455363585911 -0.92977648551165215 0 
-0.062790519668725869 0.99802672841950046 0 
-0.031410759136543863 0.99950656036389574 0 
0.18738131405188921 0.98228725083052326 0 
0.21814324072400021 0.9759167620890784 0 
0.33873791925441099 0.94088076931096432 0 
0.36812455165848051 0.92977648629455178 0 
0.094108313026724816 0.99556196463066227 0 
0.12533323322374071 0.99211470135750102 0 
0.18738131502489261 -0.98228725064491296 0 
0.1564344654032542 -0.98768834053764043 0 
0.39714788950020791 0.91775462617495462 0 
0.42577929038825668 0.90482705301978705 0 
0.86074202784517662 -0.50904141432792394 0 
0.84432792641783072 -0.53582679353590212 0 
0.92977648630236087 -0.36812455163875679 0 
0.91775462618821557 -0.39714788946956359 0 
0.3387379211275684 -0.94088076863658621 0 
0.53582679364511043 0.84432792634852505 0 
0.56208337646484929 0.82708057521735723 0 
0.61290705520712452 -0.79015501117016962 0 
0.9980267284405886 -0.062790519333539282 0 
0.99556196463116731 -0.094108313021382256 0 
0.82708057333773399 0.5620833792306309 0 
0.84432792465327522 0.53582679631639663 0 
0.90482705194036828 0.42577929268213838 0 
0.91775462523216067 0.39714789167887599 0 
0.77051324149932077 0.63742399129167504 0 
0.79015501120611531 0.61290705516078348 0 
0.82708057530368673 -0.56208337633781935 0 
0.99211470135858748 -0.12533323321514031 0 
0.99802672841907714 0.062790519675453738 0 
0.999506560363421 0.031410759151650022 0 
-0.91775462618821557 0.39714788946956359 0 
-0.95105651658034551 0.30901699349721679 0 
-0.97591676209266931 0.21814324070793539 0 
-0.96858316131707767 0.24868988643090389 0 
-0.90482705302901967 0.42577929036863649 0 
-0.89100652484613974 0.45399049844859679 0 
-0.96029368593167119 0.27899110516244918 0 
-0.99211470135858748 0.12533323321514031 0 
-0.98768834067081901 0.15643446456239821 0 
-0.999506560363421 -0.031410759151650022 0 
-0.99556196458314472 -0.094108313529407461 0 
-0.99802672841907714 -0.062790519675453738 0 
-0.9980267284405886 0.062790519333539282 0 
-0.99211470127848644 -0.12533323384920569 0 
-0.68454710760728288 0.72896862584510669 0 
-0.97591676181559384 -0.21814324194749979 0 
-0.96858316096725805 -0.24868988779336129 0 
-1.4113487779925871 0.2662459394222374 0 
-1.4401710837962349 0.25726454567599139 0 
-0.66131186695076749 0.75011106819596418 0 
-0.6374239913316645 0.77051324146623867 0 
-1.278635993582462 0.61618079300287265 0 
-1.3342193348980449 0.3128723134371787 0 
-1.357983812862257 0.29425403384061799 0 
-0.96029368546809213 -0.27899110675809902 0 
-1.25726454562919 0.5598289160138824 0 
-1.3838192066719079 0.27863599375315068 0 
-1.251822781457008 0.46986583008835742 0 
-1.4698658298155181 0.25182278149013632 0 
-1.2786359933892679 0.38381920736522779 0 
-1.294254033140406 0.3579838138766897 0 
-1.5 0.25 0 
-1.266245939331138 0.58865122176720497 0 
-0.95105651603465335 -0.30901699517668468 0 
-0.94088076863611025 -0.33873792112889051 0 
-0.58778525379630264 0.80901699328235133 0 
-0.92977648550379599 -0.36812455365570163 0 
-0.61290705520712452 0.79015501117016962 0 
-1.334219335550032 0.6871276871404316 0 
-0.90482705194036828 -0.42577929268213838 0 
-0.91775462523216067 -0.39714789167887599 0 
-1.383819207159412 0.72136400650271126 0 
-1.3579838133934889 0.70574596652606525 0 
-0.89100652359224275 -0.45399050090950821 0 
-0.87630667937442985 -0.4817536753194106 0 
-0.86074202626105578 -0.50904141700652594 0 
-0.77051324149932077 -0.63742399129167504 0 
-0.79015501120611531 -0.61290705516078348 0 
-0.66131186376584672 -0.75011107100384955 0 
-0.84432792465327522 -0.53582679631639663 0 
-0.42577929266590542 0.90482705194800694 0 
-0.53582679364511043 -0.84432792634852505 0 
-0.82708057333773399 -0.5620833792306309 0 
-0.75011106825769447 -0.66131186688074817 0 
-0.39714788950020791 -0.91775462617495462 0 
-0.42577929038825668 -0.90482705301978705 0 
-0.1564344654032542 0.98768834053764043 0 
-0.12533323385154191 0.99211470127819124 0 
-0.12533323322374071 -0.99211470135750102 0 
-0.30901699516189118 0.95105651603946006 0 
-0.72896862591932343 -0.6845471075282501 0 
-0.2486898864477238 -0.96858316131275912 0 
-0.39714789167744158 0.9177546252327814 0 
0 1 0 
-1.4698658299752401 0.74817721852925756 0 
-1.4401710839966291 0.74273545437340127 0 
0.031410759136543863 -0.99950656036389574 0 
-0.63742398824018343 -0.77051324402373422 0 
0.1564344645724027 0.98768834066923439 0 
-0.36812455165848051 -0.92977648629455178 0 
-0.48175367287098458 -0.87630668072046347 0 
-0.50904141443397422 -0.86074202778245867 0 
0.21814324194882481 -0.97591676181529774 0 
-0.36812455363585911 0.92977648551165215 0 
-1.411348778248686 0.73375406067488824 0 
-0.18738131502489261 0.98228725064491296 0 
-0.094108313531618359 0.99556196458293578 0 
-0.3387379211275684 0.94088076863658621 0 
-0.45399049848079492 -0.89100652482973397 0 
0.30901699349992939 0.95105651657946422 0 
-0.33873791925441099 -0.94088076931096432 0 
-0.21814324194882481 0.97591676181529774 0 
-0.1564344645724027 -0.98768834066923439 0 
-0.031410758967821799 -0.99950656036919805 0 
0.45399049848079492 0.89100652482973397 0 
0.48175367287098458 0.87630668072046347 0 
0.50904141711147788 -0.86074202619898743 0 
0.48175367544770797 -0.87630667930389783 0 
-1.642016186592504 0.29425403346426682 0 
-1.665780664401171 0.31287231281633859 0 
0.5877852509012087 0.80901699538576022 0 
0.61290705219334829 0.79015501350789408 0 
0.12533323385154191 -0.99211470127819124 0 
0.6374239913316645 -0.77051324146623867 0 
0.70710677958314294 0.70710678278995209 0 
0.72896862591932343 0.6845471075282501 0 
0.75011107106367292 -0.66131186369799044 0 
0.72896862897845582 -0.68454710427060494 0 
0.2486898864477238 0.96858316131275912 0 
0.24868988780537241 -0.96858316096417418 0 
0.80901699334561472 0.58778525370922807 0 
0.27899110517471432 0.96029368592810782 0 
0.50904141443397422 0.86074202778245867 0 
0.89100652359224275 0.45399050090950821 0 
0.90482705302901967 -0.42577929036863649 0 
0.42577929266590542 -0.90482705194800694 0 
0.95105651603465335 0.30901699517668468 0 
0.96029368546809213 0.27899110675809902 0 
0.96858316131707767 -0.24868988643090389 0 
0.96029368593167119 -0.27899110516244918 0 
0.98768834053608445 0.15643446541307851 0 
0.99211470127848644 0.12533323384920569 0 
0.66131186695076749 -0.75011106819596418 0 
0.53582679640856989 -0.84432792459478034 0 
-1.5301341701754461 0.74817721851096097 0 
0.77051324411217093 -0.63742398813328172 0 
0.63742398824018343 0.77051324402373422 0 
0.66131186376584672 0.75011107100384955 0 
0.68454710760728288 -0.72896862584510669 0 
0.75011106825769447 0.66131186688074817 0 
0.97591676209266931 -0.21814324070793539 0 
0.86074202626105578 0.50904141700652594 0 
0.87630668076889695 -0.48175367278288461 0 
0.92977648550379599 0.36812455365570163 0 
-1.5 0.75 0 
0.98228725063975919 0.1873813150519095 0 
0.96858316096725805 0.24868988779336129 0 
0.97591676181559384 0.21814324194749979 0 
0.99556196458314472 0.094108313529407461 0 
-1.6420161871300321 0.70574596616470464 0 
-1.616180793322106 0.72136400624999142 0 
0.99950656036934626 -0.031410758963106349 0 
1 0 0 
0.89100652484613974 -0.45399049844859679 0 
-1.687127687501532 0.66578066404236935 0 
-1.74273545433858 0.44017108385535159 0 
-1.748177218520671 0.46986582990452258 0 
-1.31287231246682 0.33421933599335429 0 
-1.74273545439973 0.55982891589655359 0 
-1.7337540606278521 0.41134877812466042 0 
-1.7481772185300439 0.53013417001828333 0 
-1.705745966404379 0.35798381321719619 0 
-1.7213640063564639 0.38381920688076132 0 
-1.75 0.5 0 
0.94088076863611025 0.33873792112889051 0 
0 -1 0 
-1.687127686894317 0.33421933527222658 0 
0.87630667937442985 0.4817536753194106 0 
-1.6657806650875879 0.68712768657554923 0 
0.70710678286330397 -0.70710677950979117 0 
-0.98228725083291424 0.1873813140393554 0 
0.68454710433943211 0.72896862891382275 0 
-0.80901699334561472 -0.58778525370922807 0 
-0.99556196463116731 0.094108313021382256 0 
0.45399050102082861 -0.89100652353552212 0 
</DataArray>
</Points>
<Cells>
<DataArray type="Int32" Name="connectivity" format="ascii">
 0 1
 2 3
 4 5
 6 7
 8 9
 10 11
 12 13
 14 15
 16 17
 18 19
 20 21
 22 23
 24 25
 26 27
 28 29
 30 31
 32 33
 34 35
 36 37
 38 39
 40 41
 17 42
 43 44
 45 46
 47 18
 48 49
 50 51
 52 20
 53 54
 55 56
 57 58
 59 60
 61 62
 63 64
 65 66
 67 68
 69 70
 71 72
 73 74
 75 76
 77 78
 79 80
 81 22
 82 83
 84 24
 85 86
 87 88
 89 90
 91 92
 93 26
 94 28
 95 96
 31 97
 98 30
 99 100
 101 102
 103 98
 104 105
 33 34
 106 36
 35 38
 107 108
 1 32
 37 109
 39 40
 44 110
 41 111
 112 43
 108 106
 113 112
 114 115
 116 117
 9 118
 119 120
 121 113
 122 6
 123 114
 120 123
 124 4
 115 125
 126 127
 5 126
 125 128
 111 116
 118 129
 130 121
 128 10
 131 130
 132 45
 133 131
 134 132
 135 8
 136 137
 137 133
 46 47
 138 139
 139 135
 140 136
 141 140
 11 12
 142 141
 143 144
 145 48
 146 142
 19 147
 148 52
 149 146
 150 143
 151 152
 153 154
 51 155
 156 57
 157 150
 158 55
 147 159
 160 59
 161 162
 49 157
 54 163
 21 164
 164 145
 165 67
 166 151
 167 168
 169 73
 159 170
 171 138
 172 153
 154 173
 168 148
 174 156
 175 167
 176 69
 170 174
 177 166
 152 175
 64 81
 178 172
 179 61
 173 65
 180 50
 181 182
 183 184
 58 178
 62 158
 185 186
 56 177
 60 71
 162 171
 187 188
 189 53
 190 84
 155 179
 191 192
 193 194
 68 195
 23 196
 197 87
 78 93
 13 185
 198 176
 182 199
 70 75
 200 89
 80 201
 202 63
 203 204
 205 206
 76 181
 207 208
 86 94
 209 190
 199 82
 196 169
 195 198
 25 210
 15 211
 83 187
 212 193
 213 214
 215 209
 216 91
 27 212
 217 205
 88 218
 219 77
 90 220
 221 161
 222 207
 3 79
 223 224
 29 217
 208 225
 211 221
 226 227
 225 95
 228 85
 229 228
 96 229
 201 230
 42 231
 232 233
 127 234
 235 16
 236 232
 237 235
 238 239
 233 240
 240 237
 241 203
 242 180
 239 236
 163 242
 206 2
 210 183
 243 238
 204 223
 7 124
 218 244
 100 103
 231 245
 194 246
 246 215
 92 197
 105 247
 214 248
 72 165
 188 213
 117 134
 97 101
 129 122
 220 241
 234 119
 227 14
 249 149
 66 160
 186 243
 248 191
 102 0
 109 250
 74 189
 251 202
 224 222
 184 251
 247 99
 244 200
 192 216
 245 226
 250 104
 144 249
 230 219
 110 107
</DataArray>
<DataArray type="Int32" Name="offsets" format="ascii">
2 4 6 8 10 12 14 16 18 20 22 24 26 28 30 32 34 36 38 40 42 44 46 48 50 52 54 56 58 60 62 64 66 68 70 72 74 76 78 80 82 84 86 88 90 92 94 96 98 100 102 104 106 108 110 112 114 116 118 120 122 124 126 128 130 132 134 136 138 140 142 144 146 148 150 152 154 156 158 160 162 164 166 168 170 172 174 176 178 180 182 184 186 188 190 192 194 196 198 200 202 204 206 208 210 212 214 216 218 220 222 224 226 228 230 232 234 236 238 240 242 244 246 248 250 252 254 256 258 260 262 264 266 268 270 272 274 276 278 280 282 284 286 288 290 292 294 296 298 300 302 304 306 308 310 312 314 316 318 320 322 324 326 328 330 332 334 336 338 340 342 344 346 348 350 352 354 356 358 360 362 364 366 368 370 372 374 376 378 380 382 384 386 388 390 392 394 396 398 400 402 404 406 408 410 412 414 416 418 420 422 424 426 428 430 432 434 436 438 440 442 444 446 448 450 452 454 456 458 460 462 464 466 468 470 472 474 476 478 480 482 484 486 488 490 492 494 496 498 500 502 504 
</DataArray>
<DataArray type="Int8" Name="types" format="ascii">
3 3 3 3 3 3 3 3 3 3 3 3 3 3 3 3 3 3 3 3 3 3 3 3 3 3 3 3 3 3 3 3 3 3 3 3 3 3 3 3 3 3 3 3 3 3 3 3 3 3 3 3 3 3 3 3 3 3 3 3 3 3 3 3 3 3 3 3 3 3 3 3 3 3 3 3 3 3 3 3 3 3 3 3 3 3 3 3 3 3 3 3 3 3 3 3 3 3 3 3 3 3 3 3 3 3 3 3 3 3 3 3 3 3 3 3 3 3 3 3 3 3 3 3 3 3 3 3 3 3 3 3 3 3 3 3 3 3 3 3 3 3 3 3 3 3 3 3 3 3 3 3 3 3 3 3 3 3 3 3 3 3 3 3 3 3 3 3 3 3 3 3 3 3 3 3 3 3 3 3 3 3 3 3 3 3 3 3 3 3 3 3 3 3 3 3 3 3 3 3 3 3 3 3 3 3 3 3 3 3 3 3 3 3 3 3 3 3 3 3 3 3 3 3 3 3 3 3 3 3 3 3 3 3 3 3 3 3 3 3 3 3 3 3 3 3 3 3 3 3 3 3 
</DataArray>
</Cells>
</Piece>
</UnstructuredGrid>
</VTKFile>
