<VTKFile type="UnstructuredGrid" version="0.1" byte_order="LittleEndian">
<UnstructuredGrid>
<Piece NumberOfPoints="1252" NumberOfCells="1252">
<PointData Scalars="abs_Uinc_p">
<DataArray type="Float64" Name="real_part_Uinc_p" format="ascii">
0.685814
0.71811
-0.809542
-0.310365
0.941301
0.580536
-0.653026
-0.888979
-0.780251
-0.983194
0.0303216
0.54639
-0.879535
-0.995658
0.669922
0.165661
0.24846
0.620455
0.309048
0.809019
-0.92483
-0.746145
0.998686
0.966767
-0.89785
-0.724258
-0.385463
-0.28746
-1
-0.808861
-0.801957
-0.978305
-0.984407
-0.906479
0.998034
0.910972
0.961387
0.652977
-0.43035
-0.852493
0.998686
0.987275
-0.979606
-0.943605
0.49862
0.0597981
0.954389
0.961387
0.573302
0.592241
0.98416
0.768345
0.999638
0.926001
0.185632
0.651599
-0.469087
0.0829552
-0.128358
0.150672
-0.999903
-0.8023
-0.752017
-0.667945
0.509783
0.452806
0.829385
0.930729
0.987275
0.930729
0.95723
0.963579
0.942645
0.858294
0.861318
-0.877616
-0.998569
0.221689
0.745854
-0.527099
0.0541605
0.169768
0.248665
0.434384
0.874985
0.0674807
0.296156
0.632007
0.0990585
0.861244
0.41256
0.987275
0.998686
0.47854
-0.12165
0.54639
0.0303219
-0.450864
-0.024841
-0.99792
-0.849503
-0.392113
0.95723
0.655445
-0.974631
-0.78816
-0.557736
0.0133382
-0.39392
0.153435
-0.495754
-0.724258
0.982673
0.934246
0.746312
-0.608073
-0.906988
-0.115216
0.214472
-0.885025
-0.761793
0.654049
0.788866
-0.457947
-0.809356
0.850913
0.501131
0.059798
0.49862
0.77034
0.455375
0.999319
0.994026
0.962916
0.987789
0.745123
-0.949886
-0.983194
-0.989643
-0.888425
-0.238942
0.787715
0.792478
-0.221095
-0.675971
0.455375
0.77034
-0.981231
-0.990552
0.985918
0.95997
0.803223
0.664495
0.997092
0.900578
-0.998143
-0.810455
0.958459
0.635196
0.751685
0.333508
0.94703
0.9799
-0.580454
-0.177589
0.776189
0.282618
-0.996973
-0.87508
0.41256
0.861244
-0.160795
0.150508
-0.454489
0.24846
-0.177589
0.014805
-0.131082
-0.885025
-0.969083
-0.464524
0.0997592
0.541065
0.494602
-0.969083
-0.580454
-0.877627
0.960415
0.994983
0.531889
0.794601
-0.613282
-0.452059
0.94703
0.650299
0.163589
-0.377185
-0.598103
-0.314182
-0.420354
0.408525
0.763873
0.497437
-0.87508
-0.996973
-0.987585
0.0296444
-0.892148
-0.943605
-0.495754
-0.144943
0.382338
0.942645
0.98416
0.354327
-0.149027
-0.827108
-0.999707
-0.879535
-0.995658
0.286014
0.792039
0.0133383
-0.557736
-0.300369
0.315801
-0.849503
-0.99792
0.999319
-0.703534
-0.165149
0.153435
-0.39392
0.910971
0.998034
-0.978305
-0.974631
0.191427
-0.15501
-0.746145
-0.479951
0.803081
0.584755
-0.627241
-0.394142
0.169768
0.0858681
0.484985
-0.949886
0.146838
0.326049
-0.862273
-0.77174
-0.209235
-0.0335967
-0.986749
-0.995435
-0.752017
-0.827513
-0.28746
-0.385463
-0.936689
-0.811851
0.150672
0.421173
0.660696
0.848031
-0.0948513
-0.190169
0.322237
0.248665
0.803081
0.584755
0.308173
-0.00145616
-0.822649
-0.962031
0.452806
0.390305
0.191426
0.517689
-0.479951
-0.155011
0.56136
0.509783
0.71811
0.685814
0.998873
0.916325
0.853188
0.8459
0.0460696
-0.325148
0.861318
0.858294
0.711118
0.407921
0.77073
0.746312
0.861318
0.862319
0.809397
0.791664
-0.99604
-0.955119
-0.0822115
0.3143
-0.768958
-0.46292
0.71811
0.746312
0.649118
0.685814
0.809397
0.824195
0.979333
0.789791
0.435952
-0.0109608
-0.00255673
0.0858681
-0.667945
-0.577488
-0.190169
-0.0948513
-0.827513
-0.752017
-0.979606
-0.997996
-0.659075
-0.525916
-0.974526
-0.929879
0.89514
0.966767
-0.627241
-0.394142
0.910971
0.998034
0.0674808
-0.168455
0.169768
0.0858681
-0.314182
-0.598103
0.782671
0.951167
0.836293
0.824195
0.788866
0.654049
0.77073
0.791664
0.96884
-0.862273
-0.929879
-0.298334
0.176455
-0.99498
-0.919268
-0.761579
-0.984621
-0.479951
-0.746145
-0.325149
0.0460694
0.999457
0.965216
-0.629714
-0.820345
-0.809356
-0.457947
0.165661
0.669922
-0.92483
-0.998476
-0.820345
-0.822649
-0.392113
-0.462919
-0.768958
-0.999903
-0.818849
-0.852493
-0.43035
-0.385191
-0.849503
-0.310365
-0.809542
0.176455
-0.298334
-0.468089
-0.675405
-0.974212
-0.78816
-0.974631
0.580536
0.651599
0.961387
0.954389
0.768345
0.132154
-0.999707
-0.827108
-0.995658
-0.879535
0.870673
0.99658
-0.260858
-0.774163
0.315801
-0.300369
0.651599
0.185633
-0.8023
0.874985
0.434384
-0.308911
-0.808861
0.307003
-0.310365
0.221689
0.745854
0.580536
0.408525
0.763873
0.807242
0.999991
-0.481086
-0.0760423
-0.99498
-0.919268
-0.328258
0.999457
0.965216
0.660696
0.848031
-0.913931
-0.986749
-0.385191
-0.557736
-0.930426
-0.675405
-0.140506
-0.955119
-0.99604
-0.929879
-0.974526
-0.984407
0.998873
0.916325
0.322237
0.390305
0.830904
0.999454
0.965216
0.999457
0.848031
0.660696
-0.986749
-0.913931
0.293532
-0.290961
-0.385463
-0.28746
-0.984621
-0.937314
0.655445
-0.974631
-0.978305
0.613315
0.8459
0.836293
0.517689
-0.811851
0.944763
0.711118
0.407921
0.421173
0.150672
-0.92483
-0.667945
-0.752017
0.0858681
0.169768
0.8459
0.853188
0.649118
0.607725
0.248665
-0.801957
-0.385191
0.829385
0.685952
0.998686
0.296156
-0.913931
-0.374809
-0.99684
-0.398343
-0.608206
-0.4827
-0.128358
-0.667945
0.944763
-0.00255672
0.965216
-0.998476
0.607725
0.649118
0.858294
0.8459
0.853188
-0.653026
0.836293
-0.4827
-0.888979
0.662962
0.607725
0.322237
-0.892148
-0.481086
0.905615
0.999638
0.452806
0.509783
0.693753
0.339843
-0.950837
-0.997996
-0.979606
-0.974526
-0.99684
-0.703793
-0.77174
0.613315
-0.374809
-0.525916
-0.451126
0.146838
-0.0335966
0.999457
-0.401013
0.82692
0.776189
-0.780251
-0.454489
0.0780384
0.268088
0.484985
0.987789
0.962916
0.30014
-0.722457
-0.401013
-0.188746
-0.469087
0.30014
0.994026
-0.624542
-0.85836
-0.786198
-0.306339
-0.238942
0.857978
0.82882
-0.981231
-0.85836
0.803223
0.901759
0.806476
0.82882
0.603566
-0.675971
0.985918
0.022147
0.022147
0.82692
0.926995
-0.299728
0.0780384
0.792478
0.89171
0.926995
-0.89785
0.268088
0.963587
0.901759
0.282618
0.326049
-0.990552
0.963587
0.806476
0.497437
-0.823812
0.664495
-0.659075
0.150508
0.0829552
0.56136
-0.221095
0.89514
-0.612375
-0.149027
0.390305
0.699251
0.987275
0.768345
0.98416
0.985042
0.354326
0.685952
0.651599
0.185633
0.745123
-0.675283
0.603566
-0.332013
0.942645
0.505644
0.952753
0.982673
-0.398343
-0.168456
-0.377185
-0.306339
-0.786198
0.934246
-0.936689
-0.995435
0.613195
-0.913931
-0.784271
-0.937314
-0.919824
0.944763
-0.811851
0.407921
0.0133383
0.905615
0.662963
-0.450864
-0.627241
-0.987585
0.802896
-0.451126
0.0296441
0.584755
0.803081
0.90176
-0.15501
0.848031
0.660696
0.185632
0.995315
-0.653026
0.308173
-0.962031
0.90176
0.150672
-0.128358
0.926001
0.999638
-0.188746
0.916325
0.998873
-0.872571
-0.823812
0.0997592
-0.464524
0.963579
0.669922
0.963578
0.408525
-0.0248407
-0.00145633
-0.0822112
-0.332013
0.782671
0.517689
-0.703793
-0.950837
0.693753
0.954389
0.632007
0.632006
0.954389
-0.978305
-0.801957
-0.977616
-0.955119
-0.99604
-0.99498
-0.0109612
0.435952
0.870673
0.442511
0.442511
0.95723
-0.0760423
0.339843
-0.888979
-0.496289
-0.761579
0.850913
0.998034
0.711118
0.64267
0.0878415
0.0878414
0.64267
0.979333
0.96884
-0.496289
0.0990583
0.613315
0.221689
-0.385191
0.655445
0.99658
0.165661
-0.392114
0.802896
0.382338
-0.140506
-0.612375
-0.328258
-0.818849
0.153435
-0.46809
0.0990585
-0.499483
-0.499483
-0.629713
-0.937313
0.789791
0.961387
-0.998569
-1
-0.809542
-1
0.50113
0.132154
0.652977
-0.140506
-0.675405
-0.820345
-0.998569
-0.849503
0.763873
-1
-0.809542
0.997092
0.778556
0.293532
0.293532
0.778556
-0.481086
-0.906479
-0.984621
-0.818849
-0.328258
-0.328258
-0.818849
0.941301
0.941301
-0.775224
-0.99792
-0.99792
-0.775224
-0.808861
0.221689
0.993799
0.993799
0.650299
-0.930426
-0.930426
-0.8023
-0.999903
-0.310365
0.64267
0.0878415
0.0878414
0.64267
0.632006
0.999454
0.792039
0.999454
-0.703534
-0.165149
-0.165148
-0.703534
-0.308911
-0.808861
-0.308911
0.286014
0.286014
0.442511
0.870673
0.870673
0.442511
0.669922
0.963578
-0.260858
0.350531
0.307003
0.350531
0.807242
0.307003
0.307003
0.965418
0.54639
0.90176
0.90176
0.54639
-0.308911
0.309048
-0.499483
0.309048
0.926001
0.812238
0.792039
0.792039
0.812238
-0.774163
-0.300369
-0.300369
-0.8023
0.993799
1
0.809019
0.993799
0.745855
1
0.95723
-0.332013
-0.332013
-0.774163
-0.774163
0.999991
0.941301
0.965418
0.965418
0.999991
0.812238
0.812238
0.999991
-0.468089
-0.46809
0.0990583
-0.977616
-0.675283
0.652977
0.652977
-0.99498
-0.823812
-0.823812
0.699251
-0.984407
-0.906479
-0.906479
0.830904
0.350531
0.350531
-0.999903
-0.298334
-0.703793
-0.703793
-0.298334
0.655445
0.315801
-0.703534
-0.675405
-0.974212
-0.974212
-0.761579
0.434384
-0.165148
0.434384
0.293532
0.778556
0.778556
0.96884
0.96884
0.763873
0.995315
0.802896
0.802896
0.995315
-0.722457
0.531889
0.214472
-0.827108
-0.392114
-0.827108
0.339843
0.339843
-0.076042
-0.919268
0.999454
-0.557736
0.0133382
-0.451126
-0.955119
-0.768958
-0.768958
-0.775224
-0.775224
-0.995658
-0.877616
-0.496289
-0.496289
-0.984621
-0.761579
0.635196
0.958459
0.163589
-0.43035
-0.852493
-0.852493
-0.43035
-0.140506
-0.950837
-0.950837
-0.999288
0.951167
0.998873
0.951167
0.942645
0.165661
-0.877627
-0.822649
-0.962031
-0.962031
-0.822649
0.99658
-0.612375
-0.612375
-0.820345
-0.39392
-0.260858
0.0296441
0.0296444
-0.451126
-0.144943
-0.629713
-0.989643
-0.629714
-0.144943
-0.481086
-0.930426
-0.995435
-0.995435
-0.888425
0.613315
0.176455
0.176455
0.874985
-0.987585
-0.987585
0.685952
0.829385
0.829385
0.685952
-0.462919
0.146838
0.326049
0.326049
0.146838
0.789791
0.979333
0.979333
0.789791
-0.99684
-0.974526
-0.99684
0.916325
0.408525
-0.0248407
-0.024841
-0.4827
-0.385463
-0.4827
0.452806
0.390305
0.809397
0.791664
0.791664
0.809397
0.354327
0.354326
0.768345
-0.801957
-0.998476
0.693753
0.926001
0.693753
-0.0822112
-0.46292
-0.0822115
0.850913
0.850913
-0.888979
-0.99604
-0.936689
0.711118
-0.457947
-0.0109612
-0.0109608
-0.457947
0.782671
0.517689
0.782671
0.497437
0.497437
-0.92483
-0.998476
-0.998569
0.132154
-0.997996
-0.314182
-0.598103
-0.598103
-0.314182
-0.577488
-0.78816
-0.78816
-0.28746
0.322237
0.509783
0.944763
0.421173
0.501131
-0.936689
-0.811851
0.905615
0.662963
0.662962
0.905615
-0.784271
-0.784271
0.505644
0.296156
0.296156
0.505644
0.930729
0.930729
-0.325149
0.0460694
0.0460696
-0.325148
0.654049
0.654049
-0.209235
-0.0335967
-0.0335966
-0.209235
0.435952
0.794601
-0.862273
-0.929879
-0.862273
-0.979606
-0.997996
-0.577488
-0.479951
-0.155011
-0.190169
-0.190169
0.248665
0.56136
0.56136
0.77073
0.746312
0.77073
0.308173
0.308173
0.584755
-1
-0.128358
-0.394142
-0.452059
-0.613282
-0.673357
-0.168455
-0.398343
-0.398343
-0.168456
0.89514
0.966767
0.966767
0.89514
0.47854
0.900578
-0.525916
-0.659075
-0.659075
-0.525916
-0.827513
-0.892148
-0.892148
-0.827513
-0.00255672
-0.00255673
0.649118
0.685814
0.824195
0.999638
-0.746145
-0.77174
0.960415
0.88002
0.994983
0.573302
0.836293
-0.160795
0.333508
0.853188
-0.919824
0.861318
0.858294
0.862319
-0.288621
0.494602
0.541065
-0.857297
-0.965517
-0.420354
-0.673357
-0.761793
-0.965517
-0.857297
0.0541605
-0.527099
-1
-0.999288
-0.906988
0.952753
0.613195
0.598484
-0.608073
0.620455
-0.872571
0.258821
0.354499
0.88002
0.432792
0.9799
-0.810455
-0.998143
0.145403
0.145403
0.354499
0.014805
0.258821
-0.131082
-0.288621
-0.999707
0.788866
-0.144943
-0.209235
0.592241
0.421173
0.407921
0.995315
0.3143
-0.374809
-0.943605
-0.986749
0.809019
0.0674807
0.580536
-0.299728
-0.608206
-0.374809
0.807242
0.191427
0.505644
0.830904
0.809019
-0.290961
-0.00145616
0.71811
-0.877616
-0.919268
-0.577488
0.98416
0.309048
0.315801
-0.076042
-0.974212
-0.39392
-0.149027
0.50113
-0.290962
0.132154
0.99658
0.382338
-0.608206
0.965418
-0.999707
0.830904
-0.12165
0.803081
-0.394142
-0.00145633
-0.984407
-0.499483
0.0303216
0.745855
-0.0948513
-0.784271
0.874985
-0.450864
-0.450864
0.435952
0.0674808
-0.809356
0.191426
-0.937313
-0.653026
0.985042
0.153435
0.751685
0.432792
0.807242
-0.290962
-0.260858
0.788866
0.382338
0.286014
-0.809356
0.3143
-0.627241
-0.608206
-0.943605
-0.0948513
-0.115216
-0.149027
0.89171
0.951167
0.910972
0.824195
0.607725
-0.77174
-0.879535
-0.877616
0.3143
0.0303219
-0.624542
0.857978
0.95997
</DataArray>
<DataArray type="Float64" Name="imag_part_Uinc_p" format="ascii">
-0.727777
-0.69593
0.587063
0.950617
0.337567
0.814234
-0.757336
-0.457948
-0.625466
-0.182565
0.99954
0.837531
-0.475835
0.0930918
-0.742431
-0.986183
0.968642
0.784242
-0.951046
-0.587782
-0.380382
-0.665783
-0.0512515
-0.255658
-0.440301
-0.689529
0.922723
0.957793
0.000516737
0.587999
0.597381
0.207171
-0.175904
0.422251
-0.062676
0.412469
-0.2752
-0.757377
-0.902662
-0.522739
0.0512516
-0.159025
-0.200927
-0.331073
-0.866821
-0.99821
-0.298568
0.2752
0.819344
0.805761
0.177285
0.640036
0.0269113
-0.37752
-0.982619
-0.758564
-0.883152
-0.996553
0.991728
0.988584
0.0139462
0.596921
-0.659144
-0.744211
-0.860303
-0.891609
0.558678
0.365708
0.159025
0.365708
0.289329
-0.267426
-0.333798
-0.513158
-0.508067
-0.479365
0.0534709
-0.975117
-0.666109
0.849804
0.998532
0.985484
0.96859
-0.900728
-0.48415
0.997721
0.95514
-0.774963
-0.995082
-0.508192
-0.91093
-0.159025
0.0512515
-0.878066
-0.992573
0.837531
0.99954
-0.892593
-0.999691
0.0644721
-0.527583
-0.919917
-0.289329
-0.755243
-0.223816
-0.61547
-0.830018
-0.999911
-0.919145
-0.988159
-0.868463
-0.689529
0.185348
-0.356629
-0.665596
-0.793881
-0.421157
-0.99334
-0.97673
0.465543
0.64782
-0.756452
-0.614565
0.88898
0.587318
0.525306
0.865372
-0.99821
-0.866821
0.637633
0.8903
0.0368956
-0.109144
0.269803
-0.1558
0.666927
0.312595
-0.182565
-0.143553
0.459021
-0.971034
0.61604
0.609901
0.975252
0.736928
0.8903
0.637633
0.192838
-0.137137
0.167229
0.280102
-0.595679
-0.747293
0.0762115
-0.434695
0.0609145
0.585801
-0.28523
-0.772351
-0.659523
-0.942747
0.321145
-0.199491
0.814293
0.984105
0.6305
0.959232
0.0777485
-0.483978
-0.91093
-0.508192
-0.986988
0.988609
0.890752
0.968642
0.984105
0.99989
0.991372
0.465543
0.246735
-0.885561
-0.995012
0.840981
0.869119
0.246735
0.814293
0.479345
-0.278574
0.100049
-0.846814
-0.607133
0.789864
0.891988
0.321145
0.759678
0.986529
0.926138
0.801419
0.949363
-0.90736
-0.912747
-0.645367
-0.8675
-0.483978
0.0777485
0.157088
0.999561
0.451743
0.331073
-0.868463
-0.98944
-0.924023
0.333798
-0.177285
-0.935122
-0.988833
0.562043
0.0242007
0.475835
-0.0930918
0.958226
0.610471
-0.999911
-0.830018
-0.953823
-0.948825
-0.527583
0.064472
0.0368956
0.710661
0.986269
0.988159
0.919145
0.41247
-0.0626757
-0.207171
0.223816
0.981507
0.987913
0.665783
0.877295
-0.59587
-0.81121
0.778825
0.919049
-0.985484
-0.996307
-0.874522
0.312595
-0.989161
-0.945353
-0.506444
-0.635938
-0.977865
-0.999435
0.162251
-0.0954443
0.659144
0.561447
0.957793
0.922723
-0.350162
-0.583865
-0.988584
-0.90698
-0.750654
-0.529946
0.995491
0.981751
0.946659
0.96859
0.59587
0.81121
0.95133
0.999999
0.56855
0.272939
0.891609
0.920686
-0.981507
-0.855569
-0.877295
-0.987913
0.827572
0.860303
0.69593
0.727777
0.047466
0.400436
0.521604
0.533342
0.998938
0.945663
0.508067
0.513158
0.703073
0.913017
0.637162
0.665596
0.508067
0.506366
0.587262
0.610957
0.0889095
-0.296222
-0.996615
-0.949324
-0.639299
-0.8864
0.69593
0.665596
0.760688
0.727777
0.587262
0.566307
0.202252
0.613376
0.89997
0.99994
0.999997
0.996307
0.744211
0.816399
0.981751
0.995491
0.561447
0.659144
0.200927
0.0632727
-0.752077
-0.850536
-0.224275
-0.367866
-0.445785
-0.255658
-0.778825
-0.919049
-0.41247
0.0626757
0.997721
0.985709
0.985484
0.996307
0.949363
0.801419
-0.622436
-0.308677
0.548282
0.566307
-0.614565
-0.756452
0.637162
0.610957
-0.247687
-0.506444
-0.367866
-0.954461
-0.984309
0.10007
-0.393631
0.648072
0.174703
-0.877295
-0.665784
0.945663
0.998938
0.0329574
-0.261454
-0.776827
0.571869
0.587318
0.888979
0.986183
0.742432
-0.380382
-0.0551801
-0.571869
0.568549
0.919917
-0.8864
-0.639299
-0.0139462
0.574009
-0.522739
-0.902662
0.922837
0.527583
-0.950617
-0.587063
-0.984309
-0.954462
0.883681
0.737447
0.225633
-0.615471
-0.223817
-0.814235
0.758564
0.2752
-0.298567
-0.640036
-0.991229
0.0242005
0.562043
-0.093092
0.475835
0.491862
-0.082631
-0.965377
-0.632986
-0.948825
-0.953823
-0.758564
-0.982619
-0.596921
-0.484149
-0.900728
0.951091
0.587999
0.951708
0.950617
0.975117
0.666109
-0.814234
0.912747
0.645367
0.59022
0.00413336
-0.876673
-0.997105
-0.10007
0.393631
0.944588
-0.0329574
0.261454
0.750654
0.529946
-0.40587
-0.162251
-0.922837
0.830018
0.36648
-0.737447
-0.99008
0.296223
-0.0889092
0.367866
0.224275
0.175904
-0.047466
-0.400436
-0.946659
-0.920686
0.556415
-0.0330412
0.261454
-0.0329572
0.529946
0.750653
-0.162251
-0.40587
0.955949
0.956735
-0.922723
-0.957793
-0.174703
0.348487
0.755243
0.223817
-0.20717
0.789839
-0.533342
-0.548282
0.855569
0.583865
-0.327755
-0.703073
-0.913017
0.90698
0.988584
0.380382
-0.744211
-0.659144
-0.996307
-0.985484
-0.533342
-0.521604
-0.760688
-0.794148
-0.96859
-0.597381
-0.922837
0.558678
0.727647
-0.0512516
0.95514
0.40587
-0.927102
-0.0794374
0.917237
0.793779
0.875786
-0.991728
0.744211
0.327755
0.999997
-0.261454
-0.0551799
0.794148
0.760688
0.513158
0.533342
0.521604
0.757336
0.548282
0.875786
0.457948
-0.748653
0.794148
0.946659
0.451743
0.876674
-0.4241
-0.0269113
0.891609
0.860303
0.720213
0.940482
-0.309693
0.0632727
0.200927
-0.224275
-0.0794374
-0.710405
-0.635938
-0.789839
-0.927102
-0.850536
0.89246
-0.989161
-0.999435
0.0329572
-0.916073
-0.56232
0.6305
-0.625466
0.890752
0.99695
-0.963394
-0.874522
-0.1558
0.269803
0.953895
-0.691416
-0.916073
-0.982026
-0.883152
0.953895
-0.109144
0.780991
0.513048
0.617975
0.951922
-0.971034
0.513686
0.559515
0.192837
0.513048
-0.595679
-0.432239
0.591267
0.559515
-0.797313
0.736928
0.167229
-0.999755
-0.999755
-0.562319
0.375074
0.954025
0.99695
0.609901
0.452607
0.375074
-0.440301
-0.963394
-0.267394
-0.432239
0.959232
-0.945353
-0.137137
-0.267394
0.591267
-0.8675
0.566864
-0.747293
-0.752077
0.988609
-0.996553
0.827572
0.975252
-0.445785
-0.790567
-0.988833
0.920686
0.714876
0.159025
-0.640036
-0.177285
0.172316
-0.935122
0.727647
0.758564
0.982619
0.666927
-0.737558
-0.797313
0.943275
0.333798
0.862742
0.303745
0.185348
0.917237
0.985709
0.926138
0.951922
0.617975
-0.356629
-0.350162
-0.0954444
0.789932
0.40587
0.620418
-0.348487
0.392331
0.327755
-0.583865
0.913017
0.999911
-0.4241
-0.748653
-0.892593
-0.778825
0.157087
-0.59612
0.89246
0.999561
0.81121
0.59587
0.432237
-0.987913
-0.529946
-0.750653
0.982619
-0.0966866
0.757336
0.95133
0.272939
0.432237
-0.988584
-0.991728
0.37752
-0.026911
-0.982026
0.400436
0.0474662
-0.488487
0.566864
-0.995012
-0.885561
0.267426
0.742431
0.267426
-0.912747
-0.999691
0.999999
-0.996615
0.943275
-0.622436
-0.855569
-0.710405
-0.309693
0.720213
0.298567
0.774963
0.774963
0.298568
0.20717
0.597381
-0.210399
-0.296223
0.0889092
0.10007
0.99994
0.89997
0.491862
0.896763
0.896763
-0.289329
0.997105
0.940482
0.457947
0.868158
0.648072
0.525306
0.062676
0.703073
0.766143
0.996134
0.996134
0.766143
0.202253
-0.247687
0.868157
0.995082
-0.789839
0.975117
0.922837
-0.755243
-0.0826312
0.986183
0.919917
-0.596119
-0.924022
0.99008
-0.790568
0.944588
0.574009
-0.988159
0.883681
0.995082
0.866324
0.866323
-0.776828
-0.348487
0.613376
-0.2752
-0.0534709
-0.000516758
0.587063
-0.000516737
0.865372
-0.991229
-0.757378
0.99008
0.737447
-0.571869
-0.0534712
0.527583
-0.645367
0.000516758
-0.587063
0.0762114
-0.627575
-0.955949
-0.955949
-0.627575
0.876673
0.422251
0.174703
-0.574009
-0.944588
-0.944588
-0.574009
-0.337567
-0.337567
-0.631687
-0.064472
-0.0644721
-0.631687
-0.587999
-0.975117
0.111194
0.111194
0.759678
-0.36648
-0.36648
-0.596921
-0.0139462
-0.950617
-0.766143
-0.996134
-0.996134
-0.766143
-0.774963
0.0330412
0.610471
0.0330413
-0.710661
-0.986269
-0.986269
-0.710661
-0.951091
-0.587999
-0.951091
-0.958226
-0.958226
-0.896763
-0.491862
-0.491862
-0.896763
-0.742432
-0.267426
-0.965377
-0.936551
0.951708
-0.936551
0.59022
-0.951708
-0.951708
0.260705
-0.837531
-0.432237
-0.432237
-0.837531
0.951091
0.951046
-0.866323
0.951046
0.37752
-0.583326
-0.610471
-0.610471
-0.583326
-0.632986
0.953823
0.953823
0.596921
-0.111194
0
-0.587782
-0.111194
-0.666109
0
0.289329
-0.943275
-0.943275
0.632986
0.632986
0.00413332
0.337567
-0.260705
-0.260705
-0.00413336
0.583326
0.583326
-0.00413332
-0.883681
-0.883681
-0.995082
-0.210399
-0.737558
0.757377
0.757378
-0.10007
-0.566864
-0.566864
0.714876
0.175904
-0.422251
-0.422251
0.556415
0.936551
0.936551
0.0139462
0.954462
0.710405
0.710405
0.954461
0.755243
0.948825
0.710661
-0.737447
-0.225633
-0.225633
-0.648072
0.900728
0.986269
0.900728
0.955949
0.627575
0.627575
0.247687
0.247687
0.645367
0.0966863
0.596119
0.59612
0.0966866
-0.691416
-0.846814
-0.97673
-0.562043
-0.919917
-0.562043
-0.940482
-0.940482
-0.997105
0.393631
-0.0330413
0.830018
0.999911
-0.89246
0.296222
0.639299
0.639299
0.631687
0.631687
0.093092
-0.479364
-0.868157
-0.868158
-0.174703
-0.648072
-0.772351
-0.28523
0.986529
0.902662
0.522739
0.522739
0.902662
-0.99008
0.309693
0.309693
0.0377263
0.308677
-0.0474662
0.308677
-0.333798
-0.986183
0.479345
-0.56855
-0.272939
-0.272939
-0.568549
0.0826312
0.790568
0.790567
0.571869
0.919145
0.965377
-0.999561
-0.999561
-0.89246
0.98944
0.776828
-0.143553
0.776827
0.98944
-0.876674
0.36648
0.0954443
0.0954444
0.459021
0.789839
0.984309
0.984309
0.48415
-0.157087
-0.157088
-0.727647
-0.558678
-0.558678
-0.727647
0.8864
0.989161
0.945353
0.945353
0.989161
-0.613376
-0.202253
-0.202252
-0.613376
0.0794374
0.224275
0.0794374
-0.400436
0.912747
0.999691
0.999691
-0.875786
-0.922723
-0.875786
-0.891609
-0.920686
-0.587262
-0.610957
-0.610957
-0.587262
0.935122
0.935122
0.640036
-0.597381
0.0551799
-0.720213
-0.37752
-0.720213
0.996615
0.8864
0.996615
-0.525306
-0.525306
-0.457947
-0.0889095
0.350162
-0.703073
-0.888979
-0.99994
-0.99994
-0.88898
0.622436
0.855569
0.622436
0.8675
0.8675
0.380382
0.0551801
0.0534712
0.991229
-0.0632727
-0.949363
-0.801419
-0.801419
-0.949363
-0.816399
0.615471
0.61547
-0.957793
-0.946659
-0.860303
-0.327755
0.90698
-0.865372
0.350162
0.583865
0.4241
0.748653
0.748653
0.4241
-0.620418
-0.620418
-0.862742
-0.95514
-0.95514
-0.862742
-0.365708
-0.365708
-0.945663
-0.998938
-0.998938
-0.945663
0.756452
0.756452
0.977865
0.999435
0.999435
0.977865
-0.89997
-0.607132
0.506444
0.367866
0.506444
-0.200927
-0.0632727
-0.816399
0.877295
0.987913
-0.981751
-0.981751
-0.96859
-0.827572
-0.827572
-0.637162
-0.665596
-0.637162
-0.95133
-0.95133
-0.81121
5.03494e-05
0.991728
0.919049
0.891988
0.789864
-0.739318
-0.985709
-0.917237
-0.917237
-0.985709
0.445785
0.255658
0.255658
0.445785
-0.878066
-0.434695
0.850536
0.752077
0.752077
0.850536
-0.561447
-0.451743
-0.451743
-0.561447
-0.999997
-0.999997
-0.760688
-0.727777
-0.566307
0.026911
0.665784
0.635938
-0.278574
0.474937
0.100049
0.819344
-0.548282
-0.986988
-0.942747
-0.521604
0.392331
-0.508067
-0.513158
-0.506366
0.957443
0.869119
0.840981
-0.514823
-0.26034
-0.90736
-0.739318
0.64782
-0.26034
-0.514823
0.998532
0.849804
5.03701e-05
0.0377264
-0.421157
0.303745
0.789932
0.801135
-0.793881
0.784242
-0.488487
0.965925
0.935056
0.474937
0.901494
-0.199491
0.585801
0.0609145
0.989373
0.989373
0.935056
0.99989
0.965925
0.991372
0.957443
-0.0242007
0.614565
-0.98944
-0.977865
0.805761
-0.90698
-0.913017
-0.0966863
0.949324
0.927102
0.331073
0.162251
0.587782
-0.997721
0.814235
0.954025
-0.793779
0.927102
-0.59022
-0.981507
0.862742
-0.556415
0.587782
-0.956735
-0.999999
-0.69593
0.479364
-0.393631
0.816399
0.177285
-0.951046
0.948825
0.997105
0.225633
-0.919145
0.988833
-0.865372
-0.956735
0.991229
0.082631
0.924023
0.793779
0.260705
-0.0242005
-0.556415
-0.992573
-0.59587
-0.919049
-0.999999
-0.175904
-0.866324
-0.99954
0.666109
-0.995491
0.620418
0.484149
0.892593
0.892593
-0.89997
-0.997721
-0.587318
0.981507
0.348487
-0.757336
0.172316
0.988159
-0.659523
0.901494
-0.59022
0.956735
0.965377
0.614565
0.924022
0.958226
-0.587318
0.949324
0.778825
-0.793779
-0.331073
-0.995491
-0.99334
0.988833
0.452607
-0.308677
-0.412469
-0.566307
-0.794148
0.635938
-0.475835
0.479365
-0.949324
-0.99954
0.780991
0.513686
0.280102
</DataArray>
<DataArray type="Float64" Name="abs_Uinc_p" format="ascii">
1
1
1
1
1
1
1
1
1
1
1
1
1
1
1
1
1
1
1
1
1
1
1
1
1
1
1
1
1
1
1
1
1
1
1
1
1
1
1
1
1
1
1
1
1
1
1
1
1
1
1
1
1
1
1
1
1
1
1
1
1
1
1
1
1
1
1
1
1
1
1
1
1
1
1
1
1
1
1
1
1
1
1
1
1
1
1
1
1
1
1
1
1
1
1
1
1
1
1
1
1
1
1
1
1
1
1
1
1
1
1
1
1
1
1
1
1
1
1
1
1
1
1
1
1
1
1
1
1
1
1
1
1
1
1
1
1
1
1
1
1
1
1
1
1
1
1
1
1
1
1
1
1
1
1
1
1
1
1
1
1
1
1
1
1
1
1
1
1
1
1
1
1
1
1
1
1
1
1
1
1
1
1
1
1
1
1
1
1
1
1
1
1
1
1
1
1
1
1
1
1
1
1
1
1
1
1
1
1
1
1
1
1
1
1
1
1
1
1
1
1
1
1
1
1
1
1
1
1
1
1
1
1
1
1
1
1
1
1
1
1
1
1
1
1
1
1
1
1
1
1
1
1
1
1
1
1
1
1
1
1
1
1
1
1
1
1
1
1
1
1
1
1
1
1
1
1
1
1
1
1
1
1
1
1
1
1
1
1
1
1
1
1
1
1
1
1
1
1
1
1
1
1
1
1
1
1
1
1
1
1
1
1
1
1
1
1
1
1
1
1
1
1
1
1
1
1
1
1
1
1
1
1
1
1
1
1
1
1
1
1
1
1
1
1
1
1
1
1
1
1
1
1
1
1
1
1
1
1
1
1
1
1
1
1
1
1
1
1
1
1
1
1
1
1
1
1
1
1
1
1
1
1
1
1
1
1
1
1
1
1
1
1
1
1
1
1
1
1
1
1
1
1
1
1
1
1
1
1
1
1
1
1
1
1
1
1
1
1
1
1
1
1
1
1
1
1
1
1
1
1
1
1
1
1
1
1
1
1
1
1
1
1
1
1
1
1
1
1
1
1
1
1
1
1
1
1
1
1
1
1
1
1
1
1
1
1
1
1
1
1
1
1
1
1
1
1
1
1
1
1
1
1
1
1
1
1
1
1
1
1
1
1
1
1
1
1
1
1
1
1
1
1
1
1
1
1
1
1
1
1
1
1
1
1
1
1
1
1
1
1
1
1
1
1
1
1
1
1
1
1
1
1
1
1
1
1
1
1
1
1
1
1
1
1
1
1
1
1
1
1
1
1
1
1
1
1
1
1
1
1
1
1
1
1
1
1
1
1
1
1
1
1
1
1
1
1
1
1
1
1
1
1
1
1
1
1
1
1
1
1
1
1
1
1
1
1
1
1
1
1
1
1
1
1
1
1
1
1
1
1
1
1
1
1
1
1
1
1
1
1
1
1
1
1
1
1
1
1
1
1
1
1
1
1
1
1
1
1
1
1
1
1
1
1
1
1
1
1
1
1
1
1
1
1
1
1
1
1
1
1
1
1
1
1
1
1
1
1
1
1
1
1
1
1
1
1
1
1
1
1
1
1
1
1
1
1
1
1
1
1
1
1
1
1
1
1
1
1
1
1
1
1
1
1
1
1
1
1
1
1
1
1
1
1
1
1
1
1
1
1
1
1
1
1
1
1
1
1
1
1
1
1
1
1
1
1
1
1
1
1
1
1
1
1
1
1
1
1
1
1
1
1
1
1
1
1
1
1
1
1
1
1
1
1
1
1
1
1
1
1
1
1
1
1
1
1
1
1
1
1
1
1
1
1
1
1
1
1
1
1
1
1
1
1
1
1
1
1
1
1
1
1
1
1
1
1
1
1
1
1
1
1
1
1
1
1
1
1
1
1
1
1
1
1
1
1
1
1
1
1
1
1
1
1
1
1
1
1
1
1
1
1
1
1
1
1
1
1
1
1
1
1
1
1
1
1
1
1
1
1
1
1
1
1
1
1
1
1
1
1
1
1
1
1
1
1
1
1
1
1
1
1
1
1
1
1
1
1
1
1
1
1
1
1
1
1
1
1
1
1
1
1
1
1
1
1
1
1
1
1
1
1
1
1
1
1
1
1
1
1
1
1
1
1
1
1
1
1
1
1
1
1
1
1
1
1
1
1
1
1
1
1
1
1
1
1
1
1
1
1
1
1
1
1
1
1
1
1
1
1
1
1
1
1
1
1
1
1
1
1
1
1
1
1
1
1
1
1
1
1
1
1
1
1
1
1
1
1
1
1
1
1
1
1
1
1
1
1
1
1
1
1
1
1
1
1
1
1
1
1
1
1
1
1
1
1
1
1
1
1
1
1
1
1
1
1
1
1
1
1
1
1
1
1
1
1
1
1
1
1
1
1
1
1
1
1
1
1
1
1
1
1
1
1
1
1
1
1
1
1
1
1
1
1
1
1
1
1
1
1
1
1
1
1
1
1
1
1
1
1
1
1
1
1
1
1
1
1
1
1
1
1
1
1
1
1
1
1
1
1
1
1
1
1
1
1
1
1
1
1
1
1
1
1
1
1
1
1
1
1
1
1
1
1
1
1
1
1
1
1
1
1
1
1
1
1
1
1
1
1
1
1
1
1
1
1
1
1
1
1
1
1
1
1
1
1
1
1
1
1
1
1
1
1
1
1
1
1
1
1
1
1
1
1
1
1
1
1
1
1
1
1
1
1
1
1
1
1
1
1
1
1
1
1
1
1
1
1
1
1
1
1
1
1
1
1
1
1
1
1
1
1
1
1
1
1
1
1
1
1
1
1
1
1
1
1
1
1
1
1
1
1
1
1
1
1
1
1
1
1
1
1
1
1
1
1
1
1
1
1
1
</DataArray>
</PointData>
<Points>
<DataArray type="Float64" Name="Nodes" NumberOfComponents="3" format="ascii">
0.99715890024530485 0.075326805730590196 0 
0.99761250634833232 0.069060025900651925 0 
-0.037690182538266163 -0.99928947264555534 0 
-0.04396811816863417 -0.99903293468469245 0 
0.25477072479385632 0.96700148799679375 0 
0.26084150537025302 0.96538163908175723 0 
0.79399039996300036 -0.6079302959769276 0 
0.79015501371517394 -0.61290705192612471 0 
-1.3441275491280369 0.30454212970778738 0 
-1.349048897056158 0.30071687346883152 0 
-0.4872501242001987 -0.87326245566089178 0 
-0.49272734000744528 -0.87018375554200467 0 
0.35053432118723438 -0.93654988637541614 0 
0.34464292415695652 -0.93873385729318526 0 
0.43145604690323158 -0.90213395878363678 0 
0.42577929277259552 -0.90482705189780233 0 
-1.6832629676852691 0.32995681526392151 0 
-1.6874453004851739 0.33457854030984091 0 
-0.012566039914968481 0.99992104420341876 0 
-0.0062831439786909067 0.99998026085605463 0 
-0.84432792655578903 0.53582679331851457 0 
-0.84094458337885358 0.541121250447408 0 
-0.94299053555049051 -0.33281954549304799 0 
-0.94506307484865826 -0.32688803061231742 0 
-1.283493649154287 0.62500000017389257 0 
-1.2804446067534501 0.61956349483162898 0 
-0.98564459506689617 -0.1688334451920423 0 
-0.98668594413189281 -0.16263716565580941 0 
0.031410759165650413 -0.99950656036298102 0 
0.02513009551190161 -0.99968418928157643 0 
-0.72896862908799187 0.68454710415396081 0 
-0.72465313188758962 0.68911380659910426 0 
-0.21814324061387241 -0.97591676211369494 0 
-0.2242707601453508 -0.974526872971611 0 
0.62769135961092692 0.77846230292146201 0 
0.63257016022498891 0.77450306157750715 0 
-0.37977909424212852 -0.92507720735981191 0 
-0.38558399097867829 -0.92267274041284786 0 
-0.39714788930052553 -0.91775462626136484 0 
-0.40290643435537038 -0.91524117321886345 0 
0.94299053629551022 -0.3328195433821548 0 
0.94088076937335396 -0.33873791908111728 0 
0.97591676180005993 0.21814324201699481 0 
0.9772681234365389 0.2120071105289297 0 
-1.3299568151619141 0.31673703240938073 0 
-1.3345785401871351 0.31255469962311511 0 
0.37395920447787728 0.92744515384268045 0 
0.37977909424212852 0.92507720735981191 0 
-1.749689230304607 0.48753852858235208 0 
-1.749922295500312 0.49376732706978721 0 
0.56726894749604384 0.82353259875170137 0 
0.57243212397383791 0.81995211045694649 0 
0.75425138225482824 -0.65658575400832531 0 
0.75011107117948439 -0.66131186356662808 0 
0.551645869013771 0.83407843468108045 0 
0.55687561486339054 0.83059590028516317 0 
-1.402891301130134 0.73036905305140631 0 
-1.3971782244394719 0.72787646317814469 0 
0.89664103751149915 -0.44275822956812722 0 
0.89384142489423457 -0.44838321460893749 0 
0.094108313586269268 -0.99556196457776969 0 
0.087851196802802511 -0.99613360912094284 0 
0.98109051733365993 0.19354946860679181 0 
0.9822872506261493 0.18738131512325479 0 
0.99495101701701005 -0.10036171449719999 0 
0.99430079043659647 -0.1066111539059561 0 
-0.93654988637009784 -0.35053432120144351 0 
-0.93873385728863334 -0.34464292416935488 0 
-0.94088076937335396 0.33873791908111728 0 
-0.93873385808805598 0.34464292199189822 0 
0.44275823229897598 -0.89664103616301538 0 
0.43711576789093282 -0.89940525096372437 0 
0.56208337622136673 0.82708057538282787 0 
0.99992104420338779 0.01256603991743817 0 
0.99998026085602998 0.0062831439826036466 0 
0.47623820500768782 -0.87931630946494754 0 
0.4707039334918775 -0.88229122572723917 0 
0.17502305837068269 0.98456433463668214 0 
0.1812057629974291 0.98344520511135725 0 