<VTKFile type="UnstructuredGrid" version="0.1" byte_order="LittleEndian">
<UnstructuredGrid>
<Piece NumberOfPoints="11465" NumberOfCells="22404">
<PointData Scalars="abs_term_ur_ext">
<DataArray type="Float64" Name="real_part_term_ur_ext" format="ascii">
-5.82149
-4.18588
-5.13344
-0.404268
5.38272
0.895502
-1.65817
1.01484
1.23212
-4.36499
-2.9804
0.736562
-0.251943
5.94841
3.86439
-6.76182
-2.9033
-5.51049
1.96481
2.34133
1.9288
0.776995
-0.219163
-3.51903
-6.49542
-5.15055
-5.42786
3.50529
4.16285
5.19436
3.92115
3.67343
1.40811
10.8369
10.4288
10.2195
-1.83767
0.516895
0.50161
5.95886
8.25978
1.5602
0.12165
2.26551
4.32101
4.43822
6.46104
6.5794
4.52542
5.75783
5.90081
4.0652
6.04538
5.18728
8.03259
3.09286
-0.0994774
-3.81094
3.19
5.27365
6.51616
2.58829
-1.03689
2.1809
-0.439552
0.831511
2.31222
-3.34194
2.70083
5.68224
3.28829
2.52523
0.907434
-1.85633
-2.61014
-1.35325
1.30193
0.73576
-3.01352
-2.26343
-3.77399
-4.75357
-8.31494
-5.51153
-8.13344
6.10032
-4.41191
6.52858
-2.00283
-0.0552059
-0.418536
-4.22312
-4.70764
10.0852
2.86475
8.1057
-0.730154
-0.26904
-0.249334
-2.70244
2.09929
-2.53785
-1.03364
1.55746
0.809992
1.7793
1.58418
-9.52462
-1.19753
1.40127
-2.81447
-0.969682
-4.81231
2.08365
-1.94288
5.84535
9.9278
6.70307
1.41421
5.13569
5.37699
15.2544
10.2612
11.1091
-8.25804
-6.32966
-12.8115
8.56347
2.64497
0.651671
4.27516
2.47572
5.15516
3.21608
-6.91651
3.60577
2.79614
3.51955
2.08137
3.14932
3.01436
2.74766
3.1283
3.83302
11.6019
11.4862
7.46214
3.87499
5.30841
5.51444
6.75746
2.06851
0.50104
1.51048
7.51465
-0.405025
-0.0822817
-0.0559276
0.0828027
0.467431
-2.23313
-1.20387
-2.78432
-2.74654
0.0626743
-1.60159
2.07265
-0.0478107
-3.67686
4.67555
-5.42904
-3.70555
-7.74549
-0.453005
-2.95088
-2.80438
-3.28762
-2.60638
-4.373
-3.29037
-0.0666641
0.532524
-1.34985
-2.04163
-0.573376
3.56975
5.21074
4.54927
-5.01927
-6.03188
0.098168
0.413063
4.06607
-1.44996
1.23565
-7.16798
-5.70978
-6.46465
-0.00347369
-2.51486
-3.65236
-4.53708
2.30112
-2.85984
-0.338197
-0.849368
10.5657
10.2317
10.6861
14.9083
5.45632
7.69385
7.01994
-15.395
-15.7559
-9.1809
-0.18938
10.4671
10.454
9.10387
1.39044
-4.63665
-0.0781321
0.576348
5.19897
3.10994
-1.03133
-0.364057
-1.46549
-4.61198
-0.120851
-5.40932
-6.01096
-5.93048
-0.676828
-1.17798
-0.427963
-2.75906
4.63665
-0.768765
1.4136
-0.549649
-0.980425
0.411707
-3.59896
4.78972
4.64112
4.04913
2.534
-0.860648
0.708492
1.16247
0.0350056
-2.49178
-1.02059
-4.18943
-3.5652
9.40661
10.0824
9.66137
-9.0753
-5.28378
-6.89988
-4.31404
-0.863138
-0.685376
-3.62506
-12.0829
-15.4542
-11.1648
-2.31765
-3.66894
0.641994
2.74344
-2.45758
2.79203
3.29526
-0.451581
3.35435
0.904028
-0.898779
-3.70893
-2.2051
-4.52566
-6.12924
-13.5682
-1.07868
-5.00637
-3.89369
1.70076
-1.40299
6.49162
-3.744
5.25844
-1.91864
-7.83696
-4.26504
-5.354
3.05097
-1.61417
1.71596
1.03328
0.790098
1.60821
-0.27348
2.88187
-7.53981
-3.46923
2.70163
5.41304
-5.94931
5.88708
-0.174645
-3.39002
-4.72108
-1.7623
8.3017
14.5616
14.8732
3.0713
2.52008
2.94754
2.56429
2.99088
10.8276
-2.84987
-1.91116
6.88643
2.29362
0.000833814
-1.85269
-5.79649
-8.65676
-8.63335
-2.84178
2.44797
-3.11044
-6.80243
-6.78599
3.71543
2.48848
2.97847
0.333091
-1.37664
3.61371
6.22903
8.75808
0.512706
-2.69404
-0.129537
2.37869
10.4491
5.94961
-1.05958
0.319663
-3.28311
-4.6861
-7.52184
-0.573272
-0.823804
-8.58242
1.32607
5.86466
1.57644
5.81247
3.76908
4.07815
-3.19217
-3.97969
-5.34093
-0.111386
0.762021
2.7543
2.0023
1.27755
1.6712
2.97237
-1.37517
4.6047
7.84571
-7.5275
1.77025
2.53267
2.21305
1.37718
5.81822
4.10017
-2.122
3.59267
-1.43627
-1.90006
-4.55601
0.916592
6.72299
6.12969
7.64452
-8.16417
0.160893
-4.31724
6.1416
5.08443
7.75789
0.932052
7.11033
2.34138
0.867037
-1.97461
1.39103
1.92781
1.55128
9.88758
8.94366
8.90509
3.44687
-3.27674
4.63258
4.49294
1.94125
-0.0354747
1.46824
0.32748
-4.72765
0.618931
-1.81703
-1.16896
-5.33974
-4.72884
-2.90643
0.546942
4.77806
-0.0199191
1.40802
-0.128784
0.542749
-8.63062
-7.58722
-6.53766
1.15509
2.32624
-1.40294
-2.87122
-0.111541
1.55488
-0.298713
5.92995
5.36905
3.2874
2.94004
-2.10186
0.15431
-3.2343
3.73611
-4.25722
-1.63728
-4.9495
4.99728
-7.44655
9.47439
3.84082
11.0636
1.61252
-2.35189
0.586675
-3.98856
0.302464
-4.07501
-3.63524
-0.745762
9.35617
9.55165
1.15804
0.645878
1.87467
4.79417
2.9888
1.28572
2.23296
2.67363
-0.958979
-2.15667
7.73764
8.0668
-0.223407
-3.2766
-3.30628
-1.65131
1.4347
-3.315
-4.53884
-3.00837
-0.580986
-2.90739
-4.23831
-3.64919
-3.47338
-1.29535
0.371989
-1.01953
1.8268
-1.70159
-5.41425
3.9787
2.87801
-3.24892
-5.52165
-7.13689
0.486176
-1.01375
0.514935
-5.37689
-0.810574
-2.84138
-7.17245
-2.59758
-1.14791
1.67784
-4.09601
5.39315
-2.0486
-8.59375
-9.50387
-10.4335
-3.23603
4.28327
6.27355
6.79863
-3.8699
-1.95297
-4.79658
-11.6317
-9.16561
-11.1183
-7.24497
-4.69189
-5.42629
-2.11725
7.1763
3.52545
0.0448411
0.216316
-4.48569
-6.5377
-4.12301
-11.0743
-10.8445
-13.4646
3.20361
3.46395
-1.41917
-1.37935
4.97183
-2.56971
-5.23307
2.85889
2.29496
-0.946469
-3.62617
-8.38509
6.02477
5.19133
6.6046
5.96413
3.30259
2.96503
-3.49706
-2.56164
-3.75032
-2.88342
-0.730106
3.84423
1.1855
-1.77042
-2.68783
-0.485448
-0.276181
-2.19036
-6.3544
8.58444
8.52126
8.03673
-7.14
-13.5961
-11.0595
10.129
8.08786
-5.31392
-7.77928
-5.03149
-2.91482
6.66521
6.51625
5.07893
1.01498
-9.6767
-9.84468
-1.97637
-3.96487
-0.206662
9.10242
8.11039
6.17552
4.57441
4.49313
5.9622
-3.17825
2.80112
7.05496
4.33332
3.52466
4.28581
3.89009
2.04517
7.99065
-3.41438
-2.78349
-3.30464
2.52417
7.84975
6.67561
-2.90175
-3.68563
-1.04225
4.1732
-2.48425
-3.63459
-0.320007
-2.50363
-0.329231
-2.35213
1.67923
7.83034
2.15621
-3.99793
-8.73751
6.20401
7.86642
-4.52306
-3.99928
-10.7485
-12.6542
-11.6765
4.01713
4.63402
-3.28561
4.90905
7.52132
0.0884017
0.53553
6.66785
7.64965
5.37478
0.322017
-10.1436
-8.9468
-10.061
-10.8973
-6.99305
-12.795
-2.57328
1.07105
3.30027
-8.88725
-12.1753
-12.9516
2.76207
3.40228
0.695511
-5.7866
-10.0278
-5.36059
-11.2123
-8.25411
0.804619
-4.30822
-2.11363
-1.2041
5.83786
11.0959
10.3837
8.59383
-14.1835
2.13481
-0.20404
7.60729
-0.64896
1.66843
-2.42535
-4.41959
-1.58503
-2.11532
-4.64791
1.17899
-1.55933
-0.576115
-1.42094
-0.855193
-1.80031
-1.60886
-1.50893
-1.19036
2.75225
-2.51393
4.89987
1.18886
2.39941
-8.7297
-14.4444
-2.97741
1.66772
5.43391
1.89294
-6.92891
-8.19408
-7.23883
-9.64642
-2.92138
-10.539
3.54955
-4.20393
-2.41461
-1.00063
-1.32392
1.63896
-0.228104
-3.22574
0.0763825
-0.777402
-5.56146
-3.04974
-2.54037
-3.48605
-1.76568
-1.4327
-1.66934
0.579182
-8.39782
-6.17342
-7.9921
-0.845783
2.78222
1.03153
0.196415
-1.2213
-4.53083
-6.05253
1.16866
-1.03531
-3.5242
0.808937
-5.37004
7.67422
14.3739
5.16918
2.00777
2.48862
5.59407
-4.01143
-5.39926
-10.058
-3.38325
0.503974
0.983602
-3.76269
-7.23088
-6.83207
-3.94904
-4.57069
-0.278024
0.162236
-1.07694
0.491254
14.446
9.32399
1.46843
1.52342
3.73735
3.77205
-4.51882
-5.50102
1.78818
-0.966827
-8.01531
-7.33436
-0.787959
-8.53343
0.342238
-1.92753
-1.1362
-0.907818
5.08641
6.11102
6.09074
-9.74572
-10.3521
-10.7195
8.50807
2.29152
6.83031
1.32841
6.23826
8.17358
-12.1533
7.85104
-2.09969
5.15435
7.35142
-0.447469
-0.121705
1.92093
2.60716
7.50159
-0.809431
-2.52051
-2.81593
-4.65675
0.436412
6.11724
4.56496
2.54186
-1.86988
0.133278
1.73051
-2.56721
-1.80571
-10.3422
2.03797
-0.753044
0.706157
-1.47147
-2.2184
1.5719
4.04022
5.37483
3.3861
-6.47323
-5.51757
-9.19794
3.85067
-1.56398
-0.366974
7.80467
1.55983
-0.169687
3.11113
1.86715
4.11952
-4.86204
-1.98912
3.24862
1.69163
2.56638
-8.16325
-9.69055
-9.8274
-0.793312
2.94919
-0.648329
4.2559
8.96599
4.59198
6.77626
6.75757
-3.25028
-4.33241
0.43369
-5.55755
-6.6514
-4.07658
-11.7677
-14.9154
-13.1342
2.36278
-4.15293
-0.962226
0.924261
-2.93666
-9.03267
-4.58304
-8.73859
1.49158
0.808781
0.414683
-1.78876
9.9854
1.37592
0.632159
-6.93808
-2.89439
-6.29233
-5.5058
5.44312
5.60951
6.31695
1.82548
-1.7062
1.00275
-11.9921
-11.1667
-0.275283
5.00559
-4.45746
-5.35791
9.47889
8.34693
5.75085
7.2237
-0.36535
2.79205
2.31299
0.810878
2.90052
5.52369
0.730488
0.155395
-1.53998
-2.23274
-7.48713
0.625785
-10.2195
-6.93449
-7.12817
-3.67589
11.8676
-0.254656
-8.75505
1.31888
9.00151
8.46692
-6.2367
-7.34767
-1.4522
0.116078
3.38054
-4.1746
-3.77456
-12.1957
-12.5559
1.4946
-4.12485
-4.9972
4.5128
4.30842
-0.552068
1.98606
4.44086
4.97688
-1.33942
-0.555663
-1.27069
0.565947
-0.964815
0.177947
6.61015
4.69547
-3.50641
-4.96522
-7.1069
-3.76642
-6.1863
6.40278
5.17834
2.38024
1.16752
-2.02028
-0.847784
-3.69218
-3.43597
10.0656
9.43235
-3.07948
-0.531747
2.39117
3.65587
7.60518
5.53962
0.61187
-3.25148
-6.53542
6.00908
7.7617
-2.05478
-1.21486
-1.26396
1.79556
2.42354
1.49853
1.01844
-7.2687
-10.1821
-9.1843
10.5029
6.87294
-4.78325
-2.11992
9.55146
-4.41004
-1.5745
-0.654744
-1.37799
-2.71521
-0.455822
1.41066
3.3811
1.69743
-2.80461
-7.17195
-2.25604
-5.05041
-2.9163
1.79071
-0.138946
1.33363
0.0726257
-0.409177
-6.72548
4.10561
2.86048
-1.59999
-1.89143
6.58189
-0.490902
5.57157
1.27026
-4.9702
-1.18796
-2.2523
-2.79419
1.59564
1.7514
3.05167
10.5734
-3.51766
-8.4142
-3.4756
0.662152
0.0689692
0.279066
-5.14745
-5.53852
-6.66548
-6.17527
-0.151954
-0.693619
-3.32872
-3.84005
-2.80223
5.40024
-1.88495
0.0758716
-0.557616
8.35755
-4.63778
-6.10449
-4.91041
-7.23938
4.31744
0.433186
0.771444
-2.66229
-1.80199
-1.90132
-2.60159
-7.1285
0.650218
1.43868
-6.18598
-10.7657
-8.32058
-6.16781
-5.95744
-3.8279
1.92535
-0.696569
-1.80178
1.00696
-9.12463
-8.72011
-3.64007
-1.80546
-4.94445
-1.14703
1.9029
11.5034
4.80483
6.13584
-9.20921
3.29859
2.2676
-3.78855
-8.17264
-6.29915
-9.29509
-0.306169
0.652123
1.1107
1.20935
1.19092
-1.67281
-2.42549
-4.9034
-5.91446
-4.80198
0.19838
8.85765
-12.9238
-9.88993
-12.8566
-2.53167
-5.33489
-5.99194
2.69714
5.30116
5.18913
-1.89819
-5.45609
-4.30144
-5.14212
12.8383
10.0903
9.36356
4.7124
-1.04128
-2.31826
-5.86272
-9.40353
2.57714
-1.63748
-1.90602
-5.42798
-0.830378
-1.14026
-9.84843
-6.16046
0.391086
3.19875
1.95427
2.51395
-3.98069
-0.280478
-5.43675
6.07047
2.83757
6.69277
3.56685
-1.07548
-7.03037
1.56152
-8.24502
-6.93387
1.65524
1.96107
0.997721
-3.55178
-3.90516
-7.35944
2.52635
4.31835
3.1027
-7.00995
3.19705
7.18799
4.54022
6.32456
1.00805
8.1932
5.37
5.62888
0.744914
-2.78592
-3.69356
-5.76569
-4.1848
-3.93639
16.2603
11.4222
15.1308
0.199254
10.0429
6.00586
10.5298
3.83132
8.03737
3.17532
-0.26007
2.30793
-0.42656
-6.27488
-7.84639
-5.12495
9.8396
-3.45358
3.50268
5.70178
1.19594
-6.39131
5.65577
1.4424
-4.08497
7.63632
-3.62699
-2.43748
-4.89851
11.2776
11.8392
9.03231
-5.25487
-4.20811
-2.8312
3.22894
-2.37397
3.30571
-0.323703
2.299
11.5548
0.862041
-1.8719
1.45415
-1.99399
-5.75259
-1.30549
1.53955
1.55022
1.47953
3.53955
1.24623
-1.48194
-0.589999
-2.64765
1.16352
0.0711976
-7.26005
-3.40378
-6.12185
-3.17808
9.06618
-2.50058
4.7087
-2.68783
2.9035
4.26429
3.7208
-6.90961
-6.59124
-9.0726
6.77359
-10.3469
-1.43309
-2.2584
-3.84002
6.54063
5.28833
-1.41003
-5.92645
0.636525
-5.15742
-2.04832
-2.21675
6.28213
4.54142
-7.01179
-7.14293
-7.08438
1.44674
-1.82301
-1.90403
-2.08777
16.3419
11.3146
4.49131
4.13126
-7.10884
-1.35075
2.23144
5.08163
2.86474
-3.29602
4.01586
-4.64325
-4.0777
-4.57095
10.7886
5.71362
7.60145
13.6027
8.89163
-3.36484
5.50079
3.26948
0.697845
10.8248
6.01476
1.57473
3.6528
5.80471
3.83745
3.02823
7.4939
-3.34469
8.09889
-6.1728
-7.96482
4.35054
6.43415
-3.44944
-5.02488
-5.01222
1.41953
-5.21357
-8.46456
-10.6739
-14.4467
0.128886
-12.2054
-3.92399
3.35583
4.87755
5.20855
8.51202
-0.579611
2.76615
3.89296
-3.39298
3.19864
4.15429
7.22173
5.02257
-0.281289
0.895782
-4.04185
-0.722674
3.19466
1.89218
-0.981181
-3.49891
-1.16519
-1.68286
-0.780467
-4.78646
-1.64833
-0.721529
-5.97109
-2.13334
-0.237262
-5.87945
-5.20575
-3.97586
0.254458
-2.42647
1.26301
-2.48832
2.22697
0.619928
4.06183
6.67365
5.95759
-8.25739
-6.29524
6.67845
-4.3552
-3.89942
7.92652
-3.20299
-3.63884
-6.19978
0.602757
0.0680376
0.188879
9.42481
-2.54423
-3.45947
-3.04778
6.38639
7.18765
2.57025
-1.40974
2.56539
-4.91782
-3.21127
2.6727
-0.921009
-6.06064
1.87905
-0.579859
1.64613
-5.87409
-3.5826
-2.62291
3.49493
3.29557
0.753815
-10.6761
-0.602231
6.59567
0.989752
0.165615
-3.55844
2.86295
3.40497
8.59959
4.79551
5.06424
3.26015
-14.4584
-6.78796
-1.02023
-4.69552
-1.03792
-3.22717
7.14281
-2.71663
6.36355
4.41823
5.06542
9.03966
-1.24725
-0.461105
2.00291
5.27993
4.63724
-2.50151
-1.98656
-1.25145
3.17162
0.161916
0.189797
-4.09762
-3.88416
-2.01281
3.32895
0.963393
-11.1637
-12.7102
-12.7478
-5.42584
-8.04231
-7.86262
-7.03584
-0.706345
-5.8198
-4.49193
-5.6946
-0.627376
4.34066
3.78924
-1.99513
-4.87033
-1.27469
5.69356
5.54331
5.70972
4.30178
0.434627
0.0174655
2.71748
1.71553
-9.28428
-7.39218
-8.59264
-2.17301
-2.12776
-1.16235
-2.82625
2.24793
-6.87977
-3.34929
0.147664
1.11093
-4.9715
-4.87712
0.125549
-4.13506
-0.4089
2.77727
-2.69823
2.70783
6.64
0.319598
-3.55439
0.29353
-5.96053
0.386418
2.75399
-0.937361
0.248393
-1.81901
-5.31468
-4.68776
-2.19487
-2.29237
0.15229
-4.03363
-4.03225
-3.39987
4.66604
4.82084
-0.686381
-8.96037
-6.96122
-3.73886
-0.780752
-0.471957
-15.7639
2.97994
2.45617
-0.0598274
0.082355
0.674123
-2.43355
1.26548
-5.82606
-6.99345
-4.29693
0.00632988
0.211439
-1.4719
8.01888
8.33737
8.91835
6.00968
6.81955
-6.02237
-3.20472
-2.76476
7.33709
-4.58825
-4.83419
-3.4008
1.90356
4.47036
-6.18823
3.18539
2.49799
1.29064
-2.46812
-2.38328
-0.720954
-2.08728
-1.86094
-0.0417109
6.1593
10.6171
11.4816
4.09474
-1.13474
-8.78319
-8.96015
2.63326
2.38752
0.846602
-2.2935
-2.47217
-2.65319
-3.83837
-3.84362
3.40387
2.93126
6.6492
1.73407
3.65588
2.33077
3.98765
1.35079
6.24617
-2.46436
-4.96455
-6.12946
-6.72219
4.33353
-1.68253
-4.28488
-3.28136
0.376946
11.1398
11.1894
5.11942
-2.27086
-8.23978
-1.77469
-2.44794
0.60246
0.617611
3.42123
-11.647
-10.02
-11.2278
-3.51569
-3.35169
9.41743
11.6278
8.06073
-3.95429
1.56014
1.17305
-1.66409
-7.60367
-5.07787
0.805563
6.20041
4.70652
4.56668
2.47985
-3.9152
-0.81249
1.9707
8.62103
8.1914
9.47607
0.442097
7.17806
-1.88483
-5.81394
7.30901
4.99609
-1.15508
12.941
12.4695
-1.53294
1.37204
-12.609
-14.1568
2.90176
-1.90335
1.05401
2.03599
-1.46682
-7.56416
-0.85145
3.25067
7.73894
7.82317
4.94845
-6.32392
-4.64934
-3.26371
-4.12866
0.0969582
7.75578
-1.71944
-1.55409
-1.51613
-2.90671
2.39602
-3.11142
-1.0528
-0.602365
-0.0887464
8.53525
1.01592
1.15353
-3.01615
3.30282
0.490121
5.18922
6.36936
2.78451
5.20251
-0.0633042
-7.77171
-6.17537
0.363778
6.78511
-3.78894
-3.64411
-2.80444
-3.30751
-4.24274
3.45507
-7.28213
-1.61146
-0.207324
0.86908
0.610003
8.07405
-5.41466
-5.81921
2.89497
10.5634
-0.731485
4.73041
-2.16617
2.78849
0.423646
0.954515
9.59678
3.05442
-1.09463
0.255603
-3.67592
-10.5263
-4.39099
-2.96014
3.41383
0.931691
1.99384
4.29192
-5.59715
5.94936
-1.30896
2.06524
7.05786
8.07011
7.35506
6.74293
-5.41592
-9.31478
-8.94401
2.16973
3.92502
-6.14181
3.06619
-0.058391
4.92399
2.87699
-1.10263
-1.15499
0.975304
-2.05477
-2.92045
-1.57722
6.23318
-3.87904
2.33794
-1.21642
-1.85026
-4.35926
-1.94762
-2.17266
-9.05393
-6.88221
-5.66452
-7.4441
-3.3644
-1.21478
-0.234277
0.829433
4.05639
14.0263
1.28305
-4.64823
0.521692
2.52759
-7.31061
-8.29443
-7.07374
-3.40212
-9.7443
4.98039
3.4887
9.85372
4.18038
-7.44485
-0.503643
2.04745
1.85632
3.88176
5.65278
4.90767
-3.77789
-12.6907
-10.6048
-11.1031
1.39727
1.90629
1.74127
1.52062
-12.6874
-2.95005
-0.200028
-2.22177
-1.36681
8.61036
3.74883
4.09181
3.45574
0.852086
0.673975
4.20262
-5.02283
-4.73625
0.849547
-1.2171
-12.8727
-7.21912
-1.96554
-1.89313
-5.63179
-9.26978
-11.0222
-7.90776
-3.4624
1.36955
0.550818
-1.43344
2.42252
7.06547
-0.550455
-0.752902
-0.853013
2.40795
-8.52384
-5.45961
7.86966
7.86087
9.9529
-3.35248
-1.42514
-5.27316
-1.17887
9.86872
11.6966
9.88261
-13.7144
-12.7771
-12.635
3.7098
-3.17495
-1.73976
-6.04322
5.50578
3.56504
5.51847
1.05772
3.5452
3.52513
-6.5066
-3.18845
-1.88102
-5.31724
-3.57759
-7.28498
8.64977
7.06444
-3.15198
2.75852
-0.21055
-0.301937
1.61378
0.19188
3.53051
0.0396816
0.176596
4.08068
3.41072
1.1666
2.18711
1.76842
3.22014
-3.63752
4.18404
4.92986
5.77288
2.84661
4.19833
-5.38508
-5.16564
1.6945
4.22704
8.87267
-2.40638
-0.549506
-1.41389
-1.65294
-1.3009
3.41738
5.58327
-0.380938
-0.029451
0.400915
0.544305
-5.39996
-7.84746
-7.00429
1.84661
-10.6902
-3.70006
-4.57034
-9.9395
-0.389055
-11.3257
-1.59675
-12.9898
7.13356
0.484619
-0.699143
-0.532381
-5.56416
-5.3979
-0.506777
-2.21929
-2.81045
0.268276
0.107824
9.05997
-5.04381
-2.05744
-5.68492
7.6994
3.28303
-0.785948
0.907105
-6.12965
-1.29334
3.18259
-2.24162
-12.0556
-13.351
-1.96734
2.75211
-2.91269
8.1904
3.8681
-1.49375
2.98104
4.4952
6.32184
6.19674
7.14101
4.48113
4.56069
0.735847
1.55677
-0.182057
1.87518
-0.667486
-1.82511
-1.05166
-2.33164
-4.64215
4.37865
2.05301
2.19062
-1.25091
-0.729832
0.0813479
10.0759
-2.53903
2.26399
2.44631
2.19871
-0.181983
-1.83986
4.24318
6.87128
6.15847
6.85386
3.365
-7.1662
-4.17186
-6.86787
1.90765
1.96531
0.392889
-0.209505
-0.152595
-1.29945
3.06099
3.73485
5.44596
6.41627
7.45629
-4.12612
3.19324
3.18676
3.8334
1.56478
2.17965
-1.88893
2.73369
-1.34228
-0.937357
0.67786
-3.17021
-4.63216
-3.53151
-0.945793
0.728386
0.647157
4.43755
7.38344
6.14592
6.07928
5.01183
-8.68799
3.94831
-11.385
-5.82319
-4.27314
-1.80742
1.57009
-2.37474
-3.86397
-5.24932
2.55987
-0.45416
0.134393
-2.323
-1.3984
-6.74289
-6.74126
-6.28235
-4.80921
-13.9372
-1.2536
1.09105
3.82352
5.61095
-2.41709
0.410438
1.94504
4.58372
2.40771
0.169911
-1.77937
0.400551
6.64095
5.63439
3.18194
-5.12258
-2.39238
0.87699
-2.14533
2.35142
-1.03672
1.62833
2.49976
-1.37758
-2.30505
-8.62928
-8.98457
-8.22761
2.60108
5.23423
5.33531
2.39963
2.08397
2.55847
1.65446
-0.471606
-0.425722
0.447593
-2.20391
-1.96658
-6.31679
-0.545394
-2.53288
-4.47151
-6.58196
-6.42767
-5.07981
-4.11835
-0.573457
-7.6544
-6.88571
-6.48954
1.90203
-15.2708
-5.74943
-4.49009
-6.46948
-6.94089
-3.89785
-0.6293
-5.66306
-3.197
-3.86483
-7.64503
-6.38331
-2.49474
3.86225
-9.29523
-14.2875
-13.4171
6.07795
7.35758
3.87151
-7.08714
4.30945
-4.71767
-5.02463
-5.4566
7.35688
5.18993
1.78832
-1.67706
3.10001
-1.33657
-3.82676
3.0921
2.95168
0.99427
6.59833
0.50485
-0.368061
-0.561639
-4.5294
8.01686
8.03737
5.86809
-7.36496
-8.27072
-0.0586835
2.53565
3.22124
5.12768
1.7025
-3.4656
0.258579
-2.78469
0.617068
10.1174
-3.199
-12.2191
-13.0808
-12.8091
-12.5466
11.245
10.7507
-0.460725
-2.05985
-7.03773
-3.02034
-5.82413
-6.29451
-5.73505
-6.66392
-3.32187
-8.68087
-9.02961
-1.4473
8.03832
-5.30556
-2.65307
-2.83354
-0.347053
-3.71661
-4.52135
-5.06256
6.71404
6.22236
6.01019
2.24066
3.9524
-1.73994
9.99579
-6.40501
-1.21335
-2.4314
-2.50649
-4.95813
-1.80984
1.07387
-2.81137
-10.5142
-4.11748
-6.03576
-5.09592
-2.50365
-2.75844
-1.24224
0.203121
-3.51525
-2.50007
-0.43109
-2.23506
2.8895
4.39815
-4.85083
-3.34199
-3.18273
2.17308
4.36614
-1.8486
4.82861
5.83026
1.39045
1.37544
-6.44732
-5.65958
-4.90466
-1.18543
-4.87502
-2.45336
-3.97099
-2.86685
-4.00558
-4.90385
-3.17901
-2.91021
-9.83781
0.363623
-2.8348
-14.8825
1.35807
-0.98998
-2.26055
-5.52478
-1.33359
4.49009
1.02192
0.00427198
2.39308
-3.01566
2.93915
10.022
-2.73037
9.48404
1.96527
-2.47728
-2.77842
0.909866
-3.95202
-8.44476
-8.25497
-6.80193
8.00226
8.6172
8.99945
-4.10763
-5.62836
-5.92424
5.23438
6.66164
1.2569
0.647302
-0.459036
-0.231113
2.28103
2.86192
3.40776
-5.04239
-1.9503
3.46539
5.7424
0.74473
-0.908059
-3.02767
-7.49636
-4.00684
-6.47474
-5.15837
-0.012018
-0.516732
-0.417395
-3.16217
-7.16687
-6.01456
4.99995
1.60519
2.15593
-1.23424
0.805584
-2.21169
0.819156
-9.16381
-5.47131
-6.97808
-5.39663
-2.78847
-7.67906
4.0058
7.15348
1.16634
-3.39843
0.00571358
-1.92986
1.53315
2.75857
5.4815
0.864783
4.69673
4.10449
3.71589
8.92049
6.69125
0.574343
6.0837
-1.01088
2.41458
-1.232
3.19014
7.61817
6.13795
5.50851
0.0166892
4.80006
4.17805
3.11793
-2.49415
4.50466
4.27294
-2.42357
-5.39973
2.00971
1.60654
2.75035
-6.5262
4.64146
4.40921
5.53357
0.948195
-0.818595
5.4578
-6.14713
-2.87839
-8.26962
-7.69956
-8.2591
-0.434023
-3.73022
0.479588
-2.2892
0.8304
-10.0462
6.1411
7.64118
4.85468
-5.07629
-4.72803
-5.44765
-4.1741
-3.26651
11.7459
3.26212
-0.325464
-2.76918
9.82245
8.61312
9.19293
2.9066
4.55524
3.87926
-1.20815
-7.9391
-7.0431
5.71922
2.65742
-8.87696
-6.35927
-6.51951
-5.35391
-6.37604
2.76232
-1.5824
-3.08601
1.62493
-0.750022
-1.72776
-5.29682
8.38175
6.33485
4.59895
5.96064
-5.68969
-4.30327
-5.91487
2.68955
-4.40606
-5.70796
-1.01036
-1.20728
-3.59138
-3.89331
-11.3366
3.95997
-6.36246
-4.83454
9.51161
12.9945
13.1492
-1.83982
-5.47168
-1.26212
-6.77214
2.08753
0.879033
0.238941
1.57562
-3.10709
-1.66124
2.66017
7.67882
6.72687
5.50248
9.22583
-3.65133
4.85529
4.52072
5.27206
9.57222
10.1204
7.55932
-2.67577
-10.8909
-14.2446
-15.4267
-2.9321
-5.65675
-2.69201
-9.87441
-10.2524
-11.2592
8.90657
10.465
11.3545
1.17437
-3.49881
-3.85801
-3.34793
2.56737
-3.70878
-2.56327
-3.87868
7.68673
10.4474
1.31104
3.15123
1.91951
0.908465
0.645376
-0.714359
-0.644932
8.51018
4.58378
3.42342
-7.43044
2.6293
-1.07029
-4.5899
7.28263
3.52656
-9.5782
-1.96875
-1.66135
-4.54866
-6.54118
-2.68182
0.77035
3.75013
3.24643
6.1727
-5.15754
-8.13477
-0.135451
-7.53695
-3.07736
-0.145969
4.93683
2.14379
5.84078
6.4475
6.19368
-6.32849
-0.845839
-2.04413
-10.0761
-8.88041
-6.58025
5.37098
6.8019
-1.12681
0.748586
5.80304
2.65336
5.55008
5.39063
2.64383
-10.7057
-4.97373
-3.79991
-1.55929
2.08876
0.928384
-0.467323
-1.83186
1.56967
0.406113
-0.332034
-1.35401
-1.63265
-8.09511
-5.12534
0.224826
-1.92669
9.96121
8.13269
-0.352965
10.7348
0.206208
2.35428
-3.20782
-1.46269
-3.95386
-0.666964
6.49427
-2.33094
2.66453
-12.3611
-14.6673
3.89568
2.71273
4.61976
3.06895
2.52876
-0.530747
-0.0437408
4.54618
-3.8855
-0.655766
-0.759169
1.0501
-2.04874
2.88066
3.83763
-3.12448
8.15945
3.68685
9.91131
-2.86569
-6.38093
-5.41221
-5.20934
-1.96614
-12.0006
-9.53363
-8.28692
-10.3486
6.80408
2.32351
-5.37904
6.83312
-4.03112
2.05793
0.48214
3.45244
1.29347
2.5396
0.935283
0.841381
2.75365
0.602673
0.413508
-0.517466
2.61205
6.23465
-11.85
-12.7959
-15.9055
0.158362
4.39885
5.72992
0.373183
4.5221
5.16103
-0.957156
4.95461
9.23342
9.43268
10.154
-2.6559
3.55216
-0.0127836
2.05515
4.71282
-1.06099
-2.76874
-2.62794
-1.78175
4.19944
8.56991
0.320146
-2.53655
-3.85739
-0.339873
-2.43062
-3.67044
-4.79908
3.26562
3.42213
4.10288
2.05188
-4.86248
3.76479
-5.6933
-4.47787
-6.04054
7.31478
3.34423
-4.12675
2.32349
4.34034
3.78254
6.09922
-6.40463
-2.69648
-5.85542
4.0207
3.7107
-8
-9.85971
-9.87739
-11.3406
9.9905
1.5319
8.35144
4.78548
4.16937
4.49942
-7.03373
7.73747
-0.263441
-2.26229
7.01614
-2.38527
-8.7391
5.08651
3.25565
6.49591
-3.66505
3.52195
-7.5201
-2.88778
-0.556247
3.98661
2.50747
-1.84819
-5.42974
-5.48024
-1.55664
-6.42804
-6.87864
-8.97071
0.567756
-5.08866
8.20619
7.82745
5.08824
-2.975
-3.54482
-2.74375
3.98862
6.99792
-1.6514
12.2405
14.8245
16.0308
1.39592
3.26459
0.600284
1.35444
0.298564
3.91042
4.89775
1.84901
-1.66596
-6.19076
2.47812
-8.17729
-3.21732
8.55366
0.419278
1.34404
3.21809
11.4122
13.1591
12.4349
2.05036
2.58107
-1.38209
-7.56394
-0.14906
4.19642
4.95637
3.11052
1.09855
3.62866
3.46558
-3.8533
-1.41875
11.8006
10.2707
0.487419
3.12871
12.2375
10.8235
-2.20382
-2.68392
-1.77724
4.55685
6.4314
4.08764
-3.86131
0.701758
-1.61422
4.59418
-2.02776
-6.37337
2.59587
0.222177
-1.21548
-5.06369
-4.29393
-3.62945
-6.29082
-4.11171
-3.5223
1.99958
-0.882427
-2.71817
-3.8696
2.10041
-1.44042
1.02035
-3.36882
-4.43354
-5.74532
3.71343
-6.84599
-10.5999
-14.982
-5.27951
0.217069
1.22496
5.04939
-2.39985
-10.6456
3.29736
2.58331
3.17072
-1.67969
-4.21765
-6.23536
-2.59215
-5.20883
-2.42556
-15.8789
-8.78727
-4.83833
0.0674777
5.58053
-0.987879
-0.625593
-6.14135
-3.70736
-2.60049
-2.28973
0.708335
1.10107
1.63158
-11.5762
-0.462365
2.3957
4.89349
4.81722
2.34752
-4.9733
-2.5947
6.09782
-13.7932
-2.94042
2.76734
-10.7697
-5.39524
-4.64366
-3.99463
3.60203
5.05175
1.35692
-2.22931
5.56643
4.64801
3.50972
-0.0985123
-2.71055
-5.58068
-6.40264
-6.57153
6.29701
0.180334
4.39383
4.957
4.85058
2.76953
-2.59822
-2.02362
-6.45628
-6.49961
2.0027
-2.04342
-1.03006
2.90265
2.80426
3.80591
-3.01926
-1.48185
-1.36026
-7.81729
1.47629
1.27117
0.321098
10.138
-2.1375
-6.15963
-5.43923
-4.74537
-1.1579
-2.55056
-3.25891
-0.224282
1.01758
-2.26161
-5.04793
-4.83522
-0.988094
-6.12185
-3.075
-7.49838
0.719749
-1.63736
5.43259
-3.88166
-1.60278
-4.93988
0.269289
-15.0439
-12.1417
1.18071
-3.75695
-1.84439
-0.961404
-2.89256
4.33286
3.51005
4.29247
-2.35202
9.27144
-3.18361
0.91104
2.70511
-1.4375
-10.5986
-2.78254
-6.37717
8.7615
4.01363
1.63462
-4.34945
-4.92778
-3.74595
-3.88426
-0.212005
5.99158
6.93193
-5.43421
-6.85274
-0.431788
-2.71326
-3.91985
4.6736
4.68284
5.21095
3.87027
8.71853
0.597708
-0.0637302
7.60755
6.0568
4.80311
8.35416
-2.35487
2.78115
9.39306
-1.01341
-4.53403
-6.35753
-5.71887
-0.525713
0.405866
-0.861781
-3.21856
-3.80735
1.81637
7.26236
-0.539494
6.05518
0.921747
0.195985
-3.55591
-2.03486
-3.17971
-4.48715
-3.30131
5.34247
2.70148
0.76873
-4.61793
-0.893296
-1.94145
-3.47402
-0.681828
6.67758
-4.67949
-4.38168
8.99123
-1.92476
-3.58947
-1.20315
6.41953
6.77662
3.49473
-12.8906
-13.8769
-4.38049
1.53266
1.36391
0.411794
-8.62245
-6.89743
-2.49006
-3.70341
-1.86026
2.34619
-2.23918
2.07994
6.39964
2.98212
-6.54855
1.43618
-0.808698
10.9068
11.5555
6.10515
4.78859
5.5507
1.23973
-0.699815
-3.88223
3.39835
5.84132
0.619527
-2.58307
-2.16508
0.50146
0.0745645
2.84086
-0.514684
-0.422984
-2.49075
-0.179745
1.36339
3.91339
5.03904
5.68454
8.26438
1.82198
2.78397
-0.409089
-6.44287
-1.99703
-0.0325529
-1.08069
-3.02521
3.41955
7.77042
7.35187
-3.58783
-1.32618
1.05256
1.25936
3.48868
3.39257
4.14603
2.33189
0.530813
2.30512
8.23435
1.82323
-1.75064
-0.367014
-3.44608
6.0068
13.1888
13.0495
14.5008
1.75683
1.35095
3.18222
0.397175
1.58711
-2.25491
-3.37442
-2.78161
0.615407
2.02363
-3.20379
0.743314
-2.42061
3.54986
0.259647
-1.42042
-0.441651
-4.22451
0.746058
8.28622
8.9096
12.7685
5.82864
6.68438
-4.64864
-2.20596
-1.58342
3.43311
-0.66941
-3.34825
3.78193
3.66609
1.84658
1.51029
0.985886
4.2478
-8.14209
-7.16775
-8.02867
-7.75394
-4.99285
-1.81381
1.24247
-4.00229
2.2702
6.18592
5.36032
7.42027
0.743389
2.25305
5.84607
-5.34573
-10.1107
-0.598308
3.05307
-1.75248
4.48161
-0.256111
-1.56364
-1.87708
-0.984838
-5.20759
-5.58427
-3.32687
-0.403437
1.24474
3.73278
2.16966
-3.18283
-4.10184
-0.569209
-4.33687
0.947813
-0.358279
-3.13262
3.32645
-2.86937
-3.98586
-3.4999
7.03556
-7.91566
-4.33925
-5.08352
-4.99718
-6.57717
2.92973
2.38426
-5.18734
2.95986
-15.4609
-12.1475
13.5575
5.98464
6.55774
9.60345
-3.1005
0.241419
-7.8017
-6.15873
-7.60323
-5.13307
-5.11135
-9.85051
-8.13017
-8.13025
-0.322276
-4.27453
-2.01866
3.47469
-1.17051
-1.13654
-4.6019
3.66825
-5.71398
0.255529
1.22156
-1.03114
0.905016
-10.827
-15.791
1.72445
2.40376
-3.93814
-6.57299
-2.95026
-2.79011
-7.89098
0.531379
-7.78162
10.9985
13.5164
7.78558
7.48094
4.60766
-0.912111
1.08577
2.21812
1.24597
0.547816
-4.57378
-6.84695
-8.05435
4.97681
-7.12116
4.85002
3.98943
4.29429
2.16265
-5.49233
0.370656
3.18172
2.54098
6.27443
-1.04364
-1.41358
-0.231098
-2.8692
-3.4904
-3.97551
-5.85506
15.4716
3.13581
0.0687522
2.41584
11.496
9.52304
-8.47998
-0.196939
-1.58778
3.70222
4.54862
-7.81656
-14.0176
-5.71512
11.3529
11.3206
13.5225
-0.521395
-4.11881
-3.02316
-2.63389
-8.06862
-1.21065
-2.35779
-0.43167
-2.55357
4.80073
4.74176
-9.44874
-4.4402
6.32416
-5.74848
-5.3247
-6.71069
-0.585397
1.68687
1.28252
2.14136
0.168528
-2.78092
4.9586
3.87372
4.08189
1.28109
2.3248
-4.69369
5.29355
6.32815
8.12106
0.936663
-2.18418
2.0594
-2.79685
-1.2663
2.62183
4.67346
-5.07877
-2.64268
-1.22766
-5.29757
-5.21671
0.854565
-2.17112
1.09021
-1.32681
0.553393
-1.05172
0.489629
0.862414
0.875391
-4.40381
9.73307
1.60416
4.34391
-0.400966
7.59041
7.52206
-9.38046
-7.42816
-9.63335
1.14373
-3.99115
-0.15321
3.38578
3.1793
0.135372
-7.87383
-9.68334
-11.6549
-4.08944
-10.026
0.580618
8.52865
1.52383
7.53534
3.46185
5.19432
-2.37157
1.84989
1.79636
7.06567
8.19757
-3.63534
-6.06865
-13.0335
-6.79761
-2.43037
-1.44949
0.616747
0.351104
0.694714
2.19546
-4.32168
-8.10036
7.61927
3.4404
-2.49561
-0.536249
-1.56671
2.05004
5.29575
0.0338382
2.33
0.286587
5.23965
-0.868379
-5.74875
8.41716
7.98332
7.435
-1.00702
-2.72536
2.2665
5.40528
-0.73546
-0.025737
-1.92312
-1.09674
12.3958
1.07723
-2.00476
-2.9304
-4.44071
-4.73991
1.5977
5.30932
-3.58858
3.29768
2.26245
1.99165
-0.604265
-2.37057
-1.40761
1.42423
11.7201
7.88492
10.7573
9.19322
1.70722
-2.94793
-3.72023
-7.15979
-4.8894
-7.87468
2.64902
2.56764
-8.56966
-4.02171
-0.508087
-10.0784
-3.5189
-9.43971
-13.7555
1.14426
8.74597
-5.58708
-14.1513
0.641697
-4.87516
-5.17053
6.60614
8.11791
8.77542
1.90033
-3.3796
-2.27648
-2.39663
-2.01434
-4.00372
-3.25903
5.05004
1.49077
1.96267
4.18316
0.564321
-6.22807
-3.06031
-2.32677
-4.48228
-2.59286
-11.7332
-3.00335
1.14339
-2.72261
-5.12359
7.17845
1.5563
9.66582
-4.08092
10.4028
12.5486
-3.36302
-1.49099
1.01733
0.542129
4.66006
-1.47565
1.60007
0.575157
-3.27546
2.67301
-6.51332
-5.04294
-3.23126
0.0141601
2.84
3.12437
4.24726
-2.40577
2.19941
2.31863
2.35671
-8.51979
-1.38545
-0.800598
-5.83233
10.2558
1.2231
-0.581446
-4.24956
-0.388906
-1.9702
-0.735015
-1.83322
1.6097
3.10136
-1.18154
1.22249
1.97083
5.01796
4.29361
2.16527
2.20937
-3.11247
-1.85477
-4.76102
2.57709
4.59927
-8.36137
-0.660408
1.51336
-2.41841
-0.987996
3.49261
0.862771
0.386699
-0.789902
1.56735
-3.37008
-4.43314
-0.702931
1.30764
-3.79966
-1.50446
-2.736
-3.82425
1.10847
1.58168
2.05799
2.12912
-3.85426
-2.76185
-3.02669
2.47678
8.01892
8.14551
7.51094
4.87055
2.2449
-2.53883
-5.90331
4.68806
2.85519
-0.434657
-1.71971
-1.8909
0.981727
-2.95307
-4.2525
-2.99477
-2.55382
1.20433
1.04696
1.87971
8.32169
10.4245
7.10076
8.00034
8.92285
-0.623467
-5.0034
-2.89554
-2.40354
-4.68682
-3.3602
-18.4519
-2.76295
-0.709928
6.473
8.51411
3.57698
4.84033
-0.688852
-14.6279
-15.7975